/*--------------------------------*- C++ -*----------------------------------*\
  =========                 |
  \\      /  F ield         | OpenFOAM: The Open Source CFD Toolbox
   \\    /   O peration     | Website:  https://openfoam.org
    \\  /    A nd           | Version:  10
     \\/     M anipulation  |
\*---------------------------------------------------------------------------*/
FoamFile
{
    format      ascii;
    class       volScalarField;
    location    "0.02498436188";
    object      alphat;
}
// * * * * * * * * * * * * * * * * * * * * * * * * * * * * * * * * * * * * * //

dimensions      [1 -1 -1 0 0 0 0];

internalField   nonuniform List<scalar> 
5170
(
0.0008125229461
0.0008111307094
0.0007989728729
0.0006739222596
0.0002546193695
0.0008016173624
0.0008005272949
0.0007793946658
0.0005051793949
0.0002942843558
0.0008004633553
0.0007910907759
0.0007172855453
0.0004075141224
0.0003341166653
0.000788054101
0.0007698863312
0.000651405747
0.0003439091339
0.0003577437707
0.0007782904459
0.0007423217335
0.0005875126802
0.0002991746475
0.0003820611289
0.0007560849963
0.0007064748463
0.0005072402746
0.0002704379481
0.0003957818008
0.000752316629
0.0007048180964
0.000479903809
0.00025346881
0.0004020540173
0.0007258229402
0.0006565561338
0.0004347348657
0.0002433693058
0.0004056548098
0.0007038303975
0.0006178144729
0.0003904485714
0.0002379375739
0.0004073112692
0.0006735227029
0.0005768057991
0.0003608506399
0.0002387856757
0.0004075527416
0.0006568645351
0.0005546001257
0.0003368958096
0.0002446712817
0.0004068568726
0.0006259860113
0.0005192754517
0.0003186472747
0.0002523308817
0.0004056239519
0.0006050960308
0.0005007325229
0.0003028312283
0.000261337152
0.0004041091663
0.0005749704524
0.0004640048123
0.0002899401975
0.0002720318108
0.000402467235
0.0005542576828
0.0004539359247
0.0002793877125
0.0002870423767
0.0004007881455
0.0005325703684
0.0004151898982
0.0002749298459
0.0003230367046
0.0003991696174
0.0005084497646
0.0003984951912
0.0002725139822
0.0003338678285
0.0003977090985
0.0004906551613
0.0003848356311
0.0002768996569
0.0003765056857
0.0003964886017
0.0004683450351
0.0003711995758
0.0002816918581
0.0003827426737
0.0003952949021
0.0004549383292
0.0003516010163
0.0002803995088
0.000428882592
0.0003833079319
3.017033669e-06
2.894402047e-05
4.721220302e-05
2.200050877e-05
2.511149424e-06
1.403163648e-06
2.324586712e-05
3.616129962e-05
1.346509477e-05
9.403199448e-07
7.536426865e-07
1.825884385e-05
2.715590013e-05
1.057066469e-05
4.088598365e-07
4.921311757e-07
1.466703882e-05
2.227903434e-05
1.096240578e-05
2.710763927e-07
3.909053722e-07
1.357626542e-05
1.947100911e-05
1.175915395e-05
2.721963263e-07
3.302075389e-07
1.19267208e-05
1.60670447e-05
1.342473496e-05
3.270624057e-07
3.117503085e-07
1.199400184e-05
1.471672438e-05
1.76541042e-05
4.706874352e-07
3.128709169e-07
1.173399716e-05
1.377876446e-05
2.19521659e-05
7.04461687e-07
3.267002779e-07
1.176149031e-05
1.371055266e-05
2.620595756e-05
9.66776796e-07
3.453281986e-07
1.183607908e-05
1.431006322e-05
2.969937033e-05
1.213187859e-06
3.647578158e-07
1.19299925e-05
1.538578197e-05
3.326864574e-05
1.451301357e-06
3.855098821e-07
1.219425587e-05
1.653654734e-05
3.631355239e-05
1.663428656e-06
4.03323226e-07
1.239604772e-05
1.785880979e-05
3.948564441e-05
1.85707813e-06
4.22436368e-07
1.276349748e-05
1.928870734e-05
4.128775986e-05
2.006627897e-06
4.400362616e-07
1.306381766e-05
2.083388332e-05
4.382501859e-05
2.180897702e-06
4.618320924e-07
1.379201233e-05
2.27517039e-05
4.765828586e-05
2.359092954e-06
4.83166747e-07
1.405689988e-05
2.432711594e-05
4.909446918e-05
2.426451319e-06
5.283037579e-07
1.472010211e-05
2.569781002e-05
4.979807653e-05
2.518733251e-06
6.287615259e-07
1.51216062e-05
2.719052191e-05
5.0768964e-05
2.602340003e-06
5.545541716e-06
1.784549334e-05
3.146226327e-05
4.880553262e-05
2.69203397e-06
0.0004317493584
0.0003366006964
0.0002963237019
0.0004489875198
0.0003547691311
0.0004197320486
0.0003302024525
0.0003199779493
0.0004793532423
0.0004409756395
0.0003987793447
0.0003286538457
0.0003548790627
0.0005269334295
0.0005782613556
0.0003888909862
0.0003325656719
0.0004010119577
0.0005903111033
0.0007311229276
0.0003828339682
0.0003416258865
0.0004378625023
0.0006780338359
0.0008582301126
0.0003814861979
0.0003625096592
0.0005061172312
0.0007909671967
0.0009510820796
0.0003863310878
0.0003979246486
0.0006092064161
0.0009020895434
0.001050117914
0.0003933902199
0.0004472288896
0.0007203897542
0.001010273733
0.001149073431
0.000407039323
0.0005161463095
0.0008448298384
0.001117502565
0.001247048797
0.0004333890275
0.0006023624914
0.0009684517221
0.001221181927
0.001343993288
0.0004798714652
0.0007235047069
0.001112186065
0.001333586258
0.00144395922
0.0005770419306
0.0008842547417
0.001242296268
0.001443199083
0.001541714194
0.000829867518
0.001102557032
0.001393908705
0.001564284431
0.001643299493
0.001017087066
0.001254559839
0.00150519192
0.001660410741
0.00173322302
0.001306084596
0.001461577703
0.001648057633
0.001770723849
0.001833281385
0.001506738405
0.001599935221
0.001738254116
0.001848746981
0.001910731462
0.001670611189
0.001739171783
0.001858436654
0.001962213759
0.002027298814
0.001936102441
0.001971340398
0.002042516864
0.002109659102
0.002151574647
0.002068776308
0.00207813406
0.002107619384
0.002161752934
0.002206872181
0.002151878291
0.002174936708
0.002233130315
0.00230764909
0.002381870534
0.002456077017
0.002501216257
0.00261868575
0.002757819965
0.002916754279
0.003666222384
0.003681512027
0.003716793178
0.003782614698
0.003843249199
0.004762238421
0.004749119812
0.00472881545
0.004711306636
0.004693792805
0.005387708327
0.00537176143
0.005341360497
0.005302129819
0.005276531995
0.005888411537
0.005888485485
0.005903636046
0.005936373717
0.005982456756
0.006357402117
0.006359260113
0.006353384615
0.006343473668
0.006324355675
0.006402989025
0.00640642556
0.006414644007
0.006427902593
0.006446547284
0.006461518178
0.006467997222
0.006483082235
0.006506443658
0.006537586662
0.006559481636
0.00656726599
0.006585243237
0.006612771304
0.006648995079
0.006707836627
0.006716126358
0.00673494842
0.006763541503
0.006800916615
0.006890628016
0.0068985423
0.006916499668
0.006943713439
0.006979191021
0.007072653622
0.007079918342
0.007096195469
0.00712076412
0.007152721938
0.007237266322
0.007243567133
0.007257737556
0.007279120729
0.007306946535
0.007389121069
0.007394586731
0.00740674095
0.007425033273
0.00744880331
0.007539183699
0.007543677811
0.007553768879
0.007568986264
0.0075887906
0.007683094118
0.007686833364
0.007695107176
0.007707558428
0.007723744845
0.007809097876
0.007812086514
0.007818774081
0.007828846508
0.007841949602
0.007906866213
0.007909386069
0.00791492143
0.007923211563
0.007933986283
0.007976269357
0.007978384051
0.007983052143
0.007990048009
0.007999134675
0.008022622874
0.008024504748
0.008028605443
0.008034722571
0.008042664874
0.008053864479
0.008055535048
0.008059193076
0.008064652817
0.008071757121
0.008075750028
0.008077299113
0.008080644956
0.008085627905
0.008092109592
0.008092636219
0.008094040126
0.008097103295
0.008101672546
0.008107629322
0.008106298501
0.008107618662
0.008110464301
0.008114702316
0.008120225197
0.008118167195
0.008119371229
0.008122000922
0.008125928471
0.008131056118
0.008128619838
0.008129759747
0.008132217179
0.008135883325
0.00814066899
0.008138483768
0.00813953032
0.008141811005
0.008145221912
0.008149682012
0.008147788443
0.008148773637
0.008150908924
0.008154098033
0.008158272277
0.008156820272
0.008157727411
0.008159712428
0.008162685112
0.008166582406
0.00816530734
0.008166164027
0.008168024613
0.008170809091
0.008174456179
0.008173317869
0.008174109492
0.008175844082
0.008178442491
0.008181858304
0.008180507987
0.008181259027
0.008182888224
0.008185329397
0.008188531508
0.008187125153
0.008187819354
0.008189341557
0.008191624992
0.008194624585
0.008193205354
0.0081938632
0.00819529368
0.008197439601
0.008200257745
0.008199019726
0.008199633002
0.008200968133
0.008202975236
0.00820561816
0.008204499172
0.00820507638
0.008206334234
0.008208218988
0.008210701678
0.008209727563
0.00821026196
0.008211435708
0.008213201591
0.008215528562
0.008214415303
0.008214922594
0.008216026722
0.008217685911
0.008219872367
0.008218660994
0.008219131531
0.008220164032
0.008221718383
0.008223770268
0.008222299535
0.008222745281
0.008223717271
0.008225177642
0.008227106495
0.008225387517
0.008225800825
0.008226709676
0.008228079033
0.008229886521
0.00822803614
0.008228429522
0.008229285004
0.008230572001
0.008232269728
0.008229504783
0.008229869841
0.00823067117
0.00823188007
0.008233477364
0.008231951935
0.008232297899
0.008233051011
0.008234184138
0.008235681434
0.008230678185
0.008230999027
0.008231706419
0.008232773715
0.008234184842
0.008236257487
0.008236559338
0.008237217101
0.008238206571
0.008239516243
0.008227729209
0.008228012674
0.008228635791
0.00822957644
0.008230822104
0.008243236705
0.008243504153
0.008244085209
0.008244959902
0.008246115791
0.008223548994
0.008223782613
0.00822429578
0.008225070488
0.008226096586
0.008232187523
0.008232440854
0.0082330009
0.008233848024
0.00823497487
0.001310233909
0.0006981531043
0.0007229635264
0.0008133006226
0.000896895502
0.0009813420338
0.001076225101
0.001173844943
0.001269914701
0.001365969148
0.001462974824
0.00155666439
0.001653116133
0.001742687979
0.001840702508
0.001922510645
0.002043219518
0.002158358199
0.00221785623
0.002421425606
0.002989768646
0.003873671536
0.004670378664
0.005285034873
0.005986037774
0.006321854491
0.006461792589
0.006561224075
0.00667624259
0.006828864357
0.007005752815
0.007176744194
0.007327973776
0.007466810237
0.007603762205
0.007735966419
0.007851860848
0.007942190427
0.008006147883
0.008048849988
0.008077329458
0.008097211751
0.008112350435
0.008124611775
0.008135146849
0.008144485916
0.008153254911
0.008161602579
0.008169697188
0.008177381704
0.008184582726
0.008191105042
0.008197046044
0.008202527582
0.008207745448
0.008212696784
0.008217400202
0.008221630508
0.008225421838
0.008228655929
0.008231352839
0.008233649332
0.008234775768
0.008236896095
0.00823532911
0.008240576197
0.008231831206
0.008247053525
0.008226931611
0.008235896668
0.0006285390926
9.760920814e-05
5.473368869e-05
5.055735624e-05
1.250170678e-05
0.0006874397128
0.0003606493213
0.0001154239972
6.958000848e-05
2.785440842e-05
0.0007584741723
0.0005213596904
0.0002944109818
0.0001617849704
7.016959963e-05
0.0008297527692
0.000648803218
0.0004308121646
0.0003367591748
0.0002268074076
0.0008934137124
0.0007622649519
0.0005639092748
0.0004560099616
0.0003785089016
0.0009681876532
0.0008765956086
0.0006908406531
0.0005565061587
0.000497927663
0.001064926696
0.0009746074423
0.0008004648867
0.0006402811646
0.0005854037941
0.001163992608
0.001079169505
0.0009104510358
0.0007265441921
0.0006653010032
0.001260138006
0.001176751226
0.001024446373
0.0008362693386
0.0007539925147
0.001356965502
0.001277602117
0.001124318057
0.0009369908588
0.0008362393485
0.001452543131
0.001373342314
0.001222941242
0.001038162796
0.0009213423984
0.001543246417
0.001464663998
0.001321108019
0.001140133108
0.001001139349
0.001637443504
0.001563972664
0.001430824925
0.001259523133
0.001106172345
0.001728525765
0.001660471559
0.001534990423
0.001375160164
0.001218750331
0.001826524959
0.001762095954
0.001642204171
0.001487618759
0.001336219534
0.001915270426
0.00186558852
0.001764307584
0.001626209695
0.001475366253
0.002040338203
0.001997568967
0.001898072559
0.001756057875
0.001596712087
0.002149447915
0.002095379423
0.001981900005
0.001827546548
0.001664659666
0.002216899538
0.002174531196
0.002074285437
0.001922772199
0.001739591284
0.002456674427
0.002486681483
0.002414044913
0.002219068674
0.001887693347
0.003056191543
0.003092622006
0.003066877366
0.002963956797
0.002798835162
0.003889413974
0.003891863107
0.003845075795
0.00377800444
0.003739423085
0.004622564298
0.004557353988
0.004582079671
0.00461145234
0.004629069915
0.005288847592
0.005348122446
0.005355291668
0.005379189084
0.005412340077
0.005970641774
0.005955289978
0.005971634269
0.006005167763
0.006045332756
0.006316010167
0.006333827654
0.006372718161
0.006423127914
0.006476052986
0.00648039186
0.006527183127
0.006588156453
0.00665619576
0.006723708592
0.006591882624
0.006655828768
0.00673198589
0.006813549579
0.00689345169
0.006711537549
0.006783444552
0.006867667566
0.006957207387
0.007045090675
0.006864800778
0.00693807092
0.007023731582
0.00711470563
0.007204119582
0.00703987818
0.007109464074
0.007190628342
0.007276634323
0.007361054761
0.007207958112
0.007271095309
0.00734432591
0.007421683721
0.007497498697
0.007355599361
0.007411240509
0.00747550465
0.007543341135
0.007609887374
0.007490401015
0.007538172783
0.007593483445
0.007652032465
0.007709642027
0.007623168335
0.007662961811
0.00770941702
0.007758810092
0.007807541865
0.007751646424
0.007784101556
0.007822194765
0.007862773777
0.007902780157
0.00786468988
0.007891088991
0.007921985322
0.007954789106
0.007986970048
0.007953094317
0.007975033546
0.008000375773
0.008027060235
0.008053022899
0.00801576992
0.008034595849
0.008055977885
0.008078276245
0.008099804032
0.008057617157
0.008074318755
0.0080930089
0.008112352509
0.008130948368
0.008085423443
0.008100575613
0.008117377425
0.008134710821
0.00815138246
0.008104744603
0.008118704012
0.008134121433
0.008150035278
0.008165407612
0.008119351035
0.008132302048
0.008146606193
0.008161416765
0.008175815831
0.008131148801
0.008143233037
0.008156601458
0.008170503827
0.008184117714
0.008141244738
0.00815254527
0.008165084759
0.008178189659
0.008191119645
0.008150195422
0.008160790351
0.008172585063
0.00818497353
0.0081972875
0.008158583635
0.008168517683
0.008179619118
0.008191341223
0.008203075634
0.008166599406
0.008175921313
0.008186377885
0.008197472383
0.008208651516
0.008174367782
0.00818311266
0.008192960031
0.008203455444
0.008214098527
0.008181751123
0.00818996504
0.008199243241
0.008209172644
0.008219297256
0.008188691475
0.008196408524
0.008205152372
0.008214545862
0.00822417357
0.008194954615
0.008202221454
0.008210473248
0.0082193685
0.008228527296
0.008200655114
0.008207493922
0.008215279525
0.008223700627
0.008232409366
0.008205923722
0.008212362247
0.008219710656
0.008227683388
0.008235962408
0.008210933589
0.008216989659
0.008223920532
0.008231463902
0.008239327916
0.00821569365
0.008221392323
0.008227929741
0.008235065123
0.008242530499
0.008220213219
0.008225573092
0.008231736008
0.008238480855
0.008245561269
0.008224275274
0.008229319936
0.008235130543
0.008241504036
0.008248214243
0.008227907774
0.008232656537
0.008238135818
0.008244159066
0.008250518038
0.008230995909
0.008235464559
0.008240627729
0.008246313659
0.008252331273
0.008233545097
0.008237753383
0.008242621521
0.008247993016
0.008253691262
0.008235709587
0.008239668611
0.008244252079
0.008249316977
0.008254700628
0.008236717831
0.008240452344
0.008244782008
0.008249574142
0.008254679806
0.008238718835
0.008242222142
0.008246286437
0.008250790663
0.008255597484
0.008237049248
0.008240359371
0.008244206546
0.008248478627
0.008253048247
0.008242170847
0.008245241099
0.008248812275
0.008252781692
0.008257033386
0.008233348888
0.008236275769
0.008239686285
0.008243484001
0.008247560333
0.008248456636
0.008251163411
0.00825431521
0.0082578209
0.008261583142
0.008228187086
0.008230607937
0.008233426725
0.008236567081
0.008239939927
0.008237275509
0.00823996659
0.008243155393
0.008246782107
0.008250774144
2.374428763e-06
1.706617517e-06
3.596018481e-05
0.000204082491
0.0004606008795
0.0005878372131
0.0006383454798
0.0006583806623
0.000666909133
0.0006706614761
0.0006723970231
0.000672912538
0.0006729999092
0.0006730639456
0.0006737000139
0.0006745048028
0.0006752063
0.0006757503868
0.0006762167936
0.0006766626111
0.0006770246932
0.0006771670821
0.0006771725333
0.0006770737628
0.0006768615286
0.0006765666495
0.0006762297057
0.0006758289182
0.0006753895913
0.0006749543259
0.0006745269986
0.0006740921209
0.0006736188224
0.0006731011057
0.0006725968635
0.0006721358493
0.0006716848969
0.0006712374358
0.0006707975878
0.0006703925393
0.0006699873518
0.0006696150568
0.000669269255
0.0006689611176
0.0006686699661
0.0006684027756
0.0006681604107
0.0006679449163
0.0006677377623
0.00066756314
0.000667403267
0.0006672409539
0.000667117948
0.0006670546611
0.0006670151092
0.0006668631244
0.0006621788178
0.0006227055457
0.0003787042028
3.425915826e-05
7.136228592e-06
1.2303487e-06
1.386287364e-05
8.737666786e-05
0.0002685453635
0.0004539772657
0.0005757629306
0.0006392981989
0.0006706352231
0.0006854275238
0.0006928933587
0.0006944080502
0.0006935349113
0.0006922789804
0.0006906308962
0.0006890339898
0.0006876619484
0.0006864947718
0.000685418987
0.0006843335247
0.0006829528131
0.0006816869181
0.0006805119772
0.0006794082233
0.0006782914106
0.0006773090508
0.0006764079169
0.0006755780623
0.0006748045551
0.0006740903691
0.0006734262973
0.0006728010346
0.0006721992137
0.0006716275826
0.0006711113157
0.000670644367
0.000670214402
0.0006698227286
0.000669470023
0.0006691478315
0.000668841825
0.0006685672716
0.0006683071725
0.0006680368126
0.0006677994373
0.0006676283232
0.0006675031851
0.0006673885599
0.0006672995054
0.0006672191139
0.0006671596213
0.0006671347268
0.000667105782
0.0006670506597
0.0006668983947
0.0006650019849
0.000650049858
0.0005681158492
0.0002840514865
3.280448401e-05
2.430559889e-05
3.584990695e-06
7.303961634e-06
5.327892701e-05
0.0001636530716
0.0003462882492
0.0005248379702
0.000639753888
0.0007044316712
0.0007360988841
0.0007459838959
0.0007441557935
0.0007364459833
0.0007264419253
0.0007167362936
0.0007083342935
0.0007015487936
0.0006967812363
0.0006930845039
0.0006899882942
0.0006875771124
0.0006849460585
0.0006826581707
0.0006807059579
0.0006791246542
0.0006777310966
0.0006765105354
0.0006754358595
0.0006744880834
0.0006736517881
0.0006729099164
0.0006722420957
0.000671639441
0.0006710988223
0.0006706161822
0.0006701855825
0.0006698079769
0.0006694808962
0.0006691954734
0.0006689560116
0.000668754421
0.0006685555788
0.0006683583916
0.0006681786897
0.0006679600949
0.0006677042139
0.0006674948455
0.0006673692706
0.0006672818511
0.0006672050706
0.0006671308988
0.0006670636244
0.0006669960888
0.0006668743788
0.0006662138222
0.0006612036797
0.000634808105
0.0005206458962
0.0002376048505
3.144324523e-05
0.000122420991
3.935111643e-05
7.099916296e-06
2.604121569e-05
0.0001156299629
0.0002904983938
0.0005222811319
0.0006907058598
0.0007943413485
0.0008471593647
0.000862561538
0.0008554094468
0.0008358784158
0.0008103339849
0.0007840486004
0.0007606840712
0.0007420628911
0.000727717827
0.0007169370767
0.0007085798462
0.0007018956145
0.0006968499367
0.0006927294892
0.0006893135365
0.0006864457349
0.0006840026973
0.0006818928435
0.000680060757
0.0006784677476
0.0006770786215
0.000675864265
0.0006747989802
0.0006738593714
0.0006730309688
0.0006723000403
0.0006716527618
0.0006710811032
0.0006705762754
0.0006701336063
0.0006697803261
0.0006694814113
0.0006691796857
0.0006689009313
0.0006686959922
0.0006685227806
0.0006682923506
0.0006680862157
0.0006679357221
0.0006677563495
0.0006675872727
0.0006674470489
0.0006673221767
0.0006672007233
0.0006669362023
0.0006654156634
0.0006561611709
0.000617144062
0.0004792811681
0.0002076826795
3.016058795e-05
0.0002157835562
0.0001125087433
3.243503691e-05
1.934446005e-05
7.431963237e-05
0.0002509317206
0.0005328752959
0.0007681065609
0.0009267020466
0.001020380819
0.001063644981
0.001067444984
0.00104103252
0.0009941659616
0.0009360105403
0.0008793742659
0.000831773895
0.0007953355292
0.0007691586041
0.0007505677023
0.0007369298798
0.0007265079375
0.0007181221997
0.000711187516
0.0007053636244
0.0007004475873
0.0006962522577
0.0006926446406
0.0006895192977
0.0006867934431
0.0006844127942
0.0006823338269
0.0006805087796
0.0006789032609
0.0006774858464
0.0006762229257
0.000675094165
0.0006740803648
0.0006731623949
0.0006722990799
0.0006715344383
0.0006709553823
0.0006705013425
0.0006700843368
0.0006697129653
0.0006692989172
0.0006688775555
0.000668532928
0.0006682743626
0.0006680325771
0.0006677855742
0.0006675606878
0.0006673162791
0.0006666321738
0.0006633598223
0.0006493270652
0.0005969372989
0.0004420209367
0.0001860535691
2.895291844e-05
0.000417813802
0.00022883495
0.000111728902
3.707560485e-05
4.779224056e-05
0.0001673461635
0.0004401439085
0.0007284910305
0.0009359085758
0.001060803121
0.001127413582
0.001151947892
0.001144446997
0.001112533802
0.001063777575
0.001004256086
0.0009417603669
0.0008843115058
0.0008373959517
0.0008021957741
0.0007767490985
0.0007581784278
0.0007440977859
0.0007329387798
0.0007237971453
0.0007161767939
0.0007097403165
0.000704252067
0.000699547294
0.0006954876039
0.0006919647925
0.0006889020089
0.0006862258544
0.0006838780513
0.0006818124531
0.0006799889105
0.000678375703
0.0006769472677
0.0006756788942
0.0006745471145
0.0006735303351
0.0006726087066
0.000671755659
0.0006710521769
0.0006706047495
0.0006703082206
0.0006698445272
0.000669227999
0.0006687095004
0.0006683641921
0.0006681183651
0.0006678540111
0.0006674144694
0.0006660760019
0.0006603454715
0.0006404702431
0.0005744791797
0.0004080382857
0.0001684501555
2.774925028e-05
0.0005378554259
0.0004137796967
0.000225971192
0.0001114300311
4.622961674e-05
8.807373743e-05
0.0002777021833
0.0006015637184
0.0008629918362
0.001035742307
0.001139469427
0.001193038383
0.001209962161
0.001199308155
0.001167075391
0.001117800517
0.001056426066
0.0009899674526
0.0009266609975
0.0008727819525
0.0008307547506
0.0007995000667
0.0007764020206
0.0007588921107
0.0007451337188
0.0007339841496
0.0007247476207
0.0007169864722
0.0007104029412
0.0007047732465
0.0006999355388
0.0006957590737
0.0006921335597
0.0006889784023
0.0006862206932
0.0006838040611
0.0006816848189
0.0006798240515
0.0006781868173
0.0006767412834
0.0006754619199
0.000674315078
0.0006732241138
0.0006722476553
0.0006714800075
0.0006709675674
0.0006705914047
0.0006701488108
0.0006695789909
0.0006689793108
0.0006684811359
0.000668074079
0.0006673872104
0.0006649991949
0.0006565807432
0.0006294219992
0.000549049756
0.0003765969019
0.000153561448
2.666031834e-05
0.0006259737003
0.0005538868631
0.0003903273735
0.0002141475343
0.0001126956849
6.179608471e-05
0.0001666480768
0.0004424475899
0.0007679987516
0.001004169501
0.001152198852
0.001235606399
0.001272816883
0.001276990616
0.001256796377
0.001217681943
0.001163260893
0.001097800397
0.001027857177
0.0009606906856
0.0009022991563
0.0008555699596
0.0008200093863
0.0007932654696
0.0007728216776
0.0007567337495
0.0007437198382
0.0007329716325
0.00072396548
0.0007163432397
0.0007098434393
0.0007042695723
0.0006994646161
0.000695306296
0.0006916937602
0.0006885490711
0.0006858060668
0.0006834092916
0.000681311456
0.0006794689855
0.0006778500058
0.0006764354824
0.0006752514533
0.0006741116357
0.0006729165016
0.0006718782022
0.0006711938499
0.0006707675396
0.0006704122932
0.0006699692698
0.0006694036038
0.000668664564
0.0006673177867
0.0006632525735
0.0006515842054
0.0006152252113
0.000521831387
0.0003468009956
0.0001406556953
2.571729669e-05
0.0007116443051
0.0006669083281
0.0005992227286
0.000460335915
0.0002428099476
0.0001043336393
9.677977696e-05
0.000298425205
0.0006454179428
0.0009542045884
0.001157871956
0.00127767036
0.001337347885
0.001355144634
0.001343675287
0.001311201858
0.001262293895
0.001200275837
0.001129698214
0.001056082211
0.0009859272536
0.000924792687
0.0008753212465
0.0008370501201
0.0008078149192
0.0007852006537
0.0007672725154
0.0007527123768
0.0007406676815
0.0007305673567
0.000722016874
0.0007147285215
0.0007084791709
0.0007030986316
0.0006984459367
0.0006944105576
0.0006909015568
0.0006878442671
0.0006851770714
0.0006828435343
0.0006808000073
0.00067900854
0.0006774532382
0.0006761418502
0.0006749330844
0.0006737061951
0.0006725584608
0.0006716474107
0.0006710269467
0.0006705812294
0.0006701193845
0.0006691896349
0.0006669221896
0.0006612495414
0.0006451951015
0.000599569854
0.0004966508275
0.0003213511305
0.0001289293882
2.428746045e-05
0.0007895022924
0.0007577832226
0.000717528328
0.0006544850482
0.0005280264274
0.0002614927752
8.503446452e-05
0.0001803569702
0.000497950568
0.0008719888172
0.001143109749
0.001309741463
0.001398664101
0.00143347382
0.00143146659
0.001404274711
0.001358792306
0.001299120997
0.001229244079
0.001153055729
0.001075769591
0.001003331471
0.0009406422897
0.0008898039741
0.0008501205388
0.0008194437623
0.0007954323481
0.0007762172965
0.000760511631
0.0007474563385
0.000736476692
0.0007271651557
0.0007192173186
0.0007123959188
0.0007065152498
0.0007014306154
0.0006970190951
0.0006931808936
0.0006898385306
0.0006869225044
0.0006843749676
0.0006821450646
0.0006801941315
0.0006784885798
0.0006769986748
0.0006757225831
0.0006745521274
0.0006733960551
0.0006723364559
0.000671450723
0.0006706555185
0.0006693619923
0.0006663782386
0.0006587267859
0.0006372250773
0.0005836297098
0.0004735199024
0.0003000618017
0.000118914121
2.320091344e-05
0.0008739209669
0.0008460196662
0.0008240466644
0.0007852611183
0.0006989630332
0.0004666183512
0.0001534536034
0.0001042093959
0.0003474940456
0.0007553396899
0.001099981454
0.00132396159
0.001450574645
0.001508524005
0.001519747413
0.001499524497
0.001457405175
0.001399073562
0.001329301558
0.001251399299
0.001169412787
0.001088574552
0.001014464681
0.0009511215831
0.0008998726356
0.0008596783382
0.0008283190052
0.000803494462
0.0007834552348
0.0007669572356
0.0007531716622
0.0007415319192
0.0007316261933
0.0007231477811
0.0007158572625
0.000709565482
0.0007041198055
0.0006993974226
0.0006952885504
0.0006917134768
0.0006885891914
0.000685859621
0.000683468475
0.0006813734847
0.0006795407941
0.0006779369484
0.0006765417345
0.0006753450582
0.0006742341235
0.000673097116
0.0006718131818
0.0006698345797
0.0006656733411
0.0006556140028
0.0006284200325
0.0005674464348
0.000451904099
0.0002815302061
0.0001105106427
2.246240125e-05
0.0009564134369
0.0009319030778
0.0009182764521
0.0008958507393
0.0008314574223
0.0006689108184
0.0002868664266
9.14516507e-05
0.0002201986114
0.0006036398868
0.001020647301
0.001312479315
0.001486955315
0.001576145704
0.001606342606
0.001596598069
0.00155953751
0.001502927485
0.001432987906
0.001353309423
0.001267469534
0.001180035104
0.001096280238
0.001021092029
0.0009576842199
0.0009066627631
0.0008664947494
0.0008348953849
0.000809677482
0.0007891439154
0.000772127749
0.0007578316347
0.0007457080973
0.0007353562529
0.0007264746639
0.0007188220291
0.0007122103821
0.0007064849251
0.0007015153386
0.0006971913753
0.0006934208517
0.0006901253184
0.0006872424831
0.0006847189601
0.000682514768
0.0006805856803
0.0006788984816
0.0006774146916
0.0006760861727
0.0006748130129
0.0006732538409
0.000670551694
0.0006647546969
0.0006511422086
0.0006185941062
0.0005508464835
0.0004310882637
0.00026436364
0.0001027589128
2.166341647e-05
0.001047066643
0.001020669157
0.001008655381
0.0009924609147
0.0009449740507
0.0008072811766
0.0004309136617
0.0001265985493
0.0001381921988
0.0004401727264
0.0008917970725
0.001253954846
0.001488472806
0.00162054477
0.001678807993
0.001686179702
0.001658707383
0.001606567087
0.001537954194
0.001457486626
0.001368878863
0.001276270999
0.001184522599
0.001098801704
0.001023481363
0.0009608049056
0.0009105537453
0.0008708903271
0.0008394497171
0.0008141382256
0.0007933738541
0.0007760625678
0.0007614510022
0.0007490161909
0.0007383659499
0.0007292070119
0.0007213049415
0.000714465167
0.0007085360899
0.00070337514
0.0006988816071
0.0006949531233
0.0006915234958
0.0006885256622
0.00068590879
0.0006836202011
0.0006816144444
0.0006798336227
0.0006782186416
0.0006766038177
0.0006745109185
0.0006709062098
0.0006634325592
0.0006458505895
0.0006080290696
0.0005342196277
0.0004114750905
0.0002489256336
9.589047833e-05
2.083662179e-05
0.0011437509
0.00111608161
0.001104809768
0.001089601177
0.001050872859
0.0009307633343
0.0006086504518
0.0002171391169
0.0001104156898
0.00028666276
0.0007111684263
0.001145041505
0.001449615662
0.001633880608
0.00172789356
0.001758225212
0.001744708786
0.001700415135
0.001635745803
0.001556520882
0.001467023024
0.001371423742
0.001274178525
0.001180344319
0.001094779791
0.001020997365
0.0009602288641
0.0009115571505
0.0008729078609
0.0008419955069
0.000816880823
0.000796132506
0.0007787399023
0.0007640076727
0.0007514284537
0.0007406314585
0.0007313262483
0.0007232774638
0.0007162980868
0.0007102281302
0.0007049445895
0.0007003334726
0.0006963106635
0.0006927956744
0.000689722056
0.0006870264002
0.0006846584349
0.0006825445193
0.0006805978025
0.0006785749504
0.0006757637872
0.0006710391851
0.0006614193143
0.0006399182314
0.0005966918882
0.0005174395918
0.0003926517269
0.0002344779418
8.926630239e-05
2.000235762e-05
0.001251108995
0.001224139573
0.001209000593
0.001184765516
0.001144908535
0.00103785079
0.0007782909539
0.0003660157169
0.00014159726
0.000183568321
0.0005017120145
0.0009713678218
0.001353179518
0.00160215193
0.001740581618
0.00179962886
0.001804347994
0.001771560614
0.001713888632
0.001638733162
0.001551423763
0.001456149032
0.001357030855
0.001258736006
0.001166239762
0.001083681489
0.001013488663
0.0009559429876
0.0009096735805
0.0008725794517
0.0008425817965
0.0008179718665
0.0007974851801
0.0007802257447
0.0007655507625
0.0007529860531
0.0007421726093
0.0007328254764
0.0007247264483
0.0007176870146
0.0007115608293
0.0007062204074
0.0007015599455
0.0006974842648
0.0006939161878
0.0006907818971
0.0006880208386
0.0006855374831
0.0006831973596
0.0006806640278
0.0006769185339
0.0006707472574
0.0006584446121
0.0006330443583
0.0005845623398
0.0005004280644
0.0003743271185
0.0002206670106
8.291424931e-05
1.917693933e-05
0.001371349976
0.001334657297
0.001304944989
0.001262028273
0.001219793629
0.001137858665
0.0009580812739
0.0006214361892
0.0002600632585
0.0001490837569
0.0003157601717
0.0007210948532
0.001169637438
0.001499443439
0.001697631529
0.001795267732
0.001824502181
0.001807423745
0.001760161356
0.00169276952
0.001611437862
0.001520434332
0.001423821203
0.001325778647
0.001230861329
0.001143393899
0.001066529115