/*--------------------------------*- C++ -*----------------------------------*\
  =========                 |
  \\      /  F ield         | OpenFOAM: The Open Source CFD Toolbox
   \\    /   O peration     | Website:  https://openfoam.org
    \\  /    A nd           | Version:  10
     \\/     M anipulation  |
\*---------------------------------------------------------------------------*/
FoamFile
{
    format      ascii;
    class       volScalarField;
    location    "0.02498436188";
    object      C2H2_0;
}
// * * * * * * * * * * * * * * * * * * * * * * * * * * * * * * * * * * * * * //

dimensions      [0 0 0 0 0 0 0];

internalField   nonuniform List<scalar> 
5170
(
0
0
0
0
0
0
0
0
0
0
0
0
0
0
0
0
0
0
0
0
0
0
0
0
0
0
0
0
0
0
0
0
0
0
0
0
0
0
0
0
0
0
0
0
0
0
0
0
0
0
0
0
0
0
0
0
0
0
0
0
0
0
0
0
0
0
0
0
0
0
0
0
0
0
0
0
0
0
0
0
0
0
0
0
0
0
0
0
0
0
0
0
0
1.834312446e-13
9.004613702e-13
3.283613058e-13
2.058466313e-12
1.664109743e-11
1.161823548e-10
5.472751511e-10
2.576373583e-17
0
0
0
0
6.112653048e-17
0
0
0
0
1.732495529e-17
8.244641604e-18
0
5.71264726e-20
6.780863341e-20
2.248970614e-18
2.067952464e-17
4.055183174e-19
0
0
0
8.974882329e-17
0
3.173208558e-16
3.800862581e-15
7.395428845e-15
0
0
1.734243466e-14
2.374883062e-14
5.029477059e-14
2.408268485e-14
3.542751124e-13
3.322619796e-12
0
2.986215751e-11
9.51822884e-13
1.090372103e-12
2.638222115e-11
0
0
5.629891438e-11
2.580587461e-11
1.81393069e-12
0
0
1.701856782e-09
1.867749944e-10
0
9.667771889e-13
4.868433484e-11
1.347080184e-09
0
1.769061208e-11
6.330315984e-11
4.626815614e-11
4.064195178e-11
0
1.4321483e-12
4.386197953e-11
3.847872505e-12
5.888687768e-12
0
2.200824908e-11
2.101048793e-10
9.361904658e-12
2.149860518e-12
1.629734137e-11
1.19649257e-10
3.488687762e-10
1.07638433e-10
4.201887306e-11
7.443442054e-11
2.002005108e-10
2.835847841e-10
1.36786849e-10
1.228077679e-10
1.489730488e-10
2.271205885e-10
2.858069432e-10
1.191776635e-10
2.135135954e-10
2.354788039e-10
2.147198462e-10
3.782940003e-10
1.544500595e-10
1.741240253e-10
1.957659218e-10
2.244228686e-10
2.690101978e-10
6.276795585e-10
3.020296233e-10
1.931292874e-10
3.212122633e-10
2.237472934e-10
3.539844782e-08
1.831134294e-08
3.41069803e-09
6.099020891e-10
3.984817265e-11
1.678075372e-11
1.241159625e-10
1.813869256e-09
2.559868393e-08
3.177929313e-07
7.354575143e-10
5.699567817e-09
8.279766516e-08
1.096535612e-06
1.189238506e-05
4.673015594e-09
3.280328466e-08
3.903363013e-07
3.857598419e-06
2.677119656e-05
1.813174448e-08
1.151286508e-07
1.148298776e-06
8.843226349e-06
4.346235571e-05
5.654004845e-08
3.288322152e-07
2.834185245e-06
1.780980395e-05
7.053341478e-05
1.594198884e-07
8.645907887e-07
6.393400296e-06
3.278514239e-05
0.0001096967857
4.136744451e-07
2.07924995e-06
1.293577183e-05
5.415370871e-05
0.0001542517338
9.864024482e-07
4.506758301e-06
2.323762006e-05
7.983082985e-05
0.000194702053
2.189536431e-06
8.908790568e-06
3.765532241e-05
0.0001078124544
0.0002309419385
4.569474703e-06
1.622594922e-05
5.641390343e-05
0.0001385531412
0.0002696691066
9.099721416e-06
2.776989561e-05
8.014835986e-05
0.0001737897799
0.0003154261436
1.780677241e-05
4.499857861e-05
0.0001092950723
0.0002144595555
0.0003670624185
3.369637668e-05
6.907738316e-05
0.0001442809988
0.0002599295695
0.0004209678879
5.803805631e-05
0.0001004248603
0.0001848986103
0.0003090690589
0.0004754872932
9.471608571e-05
0.000141203888
0.0002323083633
0.0003627235441
0.0005329132045
0.0001433117173
0.000191779268
0.0002873612409
0.0004224046557
0.0005956351664
0.0002064311078
0.0002552995611
0.0003526534833
0.0004893091516
0.000662700847
0.0002845843228
0.00033101549
0.0004250468669
0.0005572645946
0.0007238718111
0.0003655106765
0.0004068727335
0.000491363629
0.0006089376328
0.0007528087177
0.0004390190459
0.0004725231552
0.0005395948158
0.0006286385959
0.0007295896031
0.0004928473131
0.0005145938131
0.0005562324351
0.0006070034024
0.0006573869784
0.0005048355264
0.0005132805626
0.000528733582
0.0005455426044
0.0005584598699
0.0004603033034
0.0004613954642
0.0004624851258
0.0004615199159
0.0004565140217
0.0003835732895
0.0003820438058
0.0003780687106
0.000371105446
0.0003606736566
0.0002987703274
0.0002968057504
0.0002921646295
0.0002848701681
0.000275036373
0.0002201080184
0.0002184899567
0.0002147858094
0.0002090911128
0.0002015703829
0.00015857952
0.0001574286984
0.0001547653607
0.0001506890183
0.0001453562166
0.0001113181757
0.000110541159
0.0001087407944
0.0001059908809
0.0001024080856
7.656849331e-05
7.606525688e-05
7.489725531e-05
7.311311111e-05
7.079093655e-05
5.18009786e-05
5.148487692e-05
5.074931196e-05
4.962423031e-05
4.815895642e-05
3.449219167e-05
3.429859122e-05
3.384650712e-05
3.315334836e-05
3.22490924e-05
2.254788238e-05
2.243221024e-05
2.216063803e-05
2.174281626e-05
2.119649946e-05
1.440527397e-05
1.433800926e-05
1.417892791e-05
1.393308393e-05
1.361078727e-05
8.951587127e-06
8.913710829e-06
8.823237668e-06
8.682659608e-06
8.497848507e-06
5.390747011e-06
5.370185216e-06
5.32046016e-06
5.242699131e-06
5.140167457e-06
3.138557357e-06
3.1278419e-06
3.10151856e-06
3.060041272e-06
3.005179781e-06
1.763473021e-06
1.758128878e-06
1.744743035e-06
1.723461354e-06
1.695217205e-06
9.543778785e-07
9.518413083e-07
9.453252045e-07
9.348520564e-07
9.209006001e-07
4.962826777e-07
4.95145149e-07
4.921245999e-07
4.872034019e-07
4.80619791e-07
2.472817955e-07
2.468060773e-07
2.454827276e-07
2.432884614e-07
2.403380068e-07
1.177355122e-07
1.175532111e-07
1.170106267e-07
1.160895563e-07
1.148431553e-07
5.343320598e-08
5.337130153e-08
5.316587589e-08
5.280537904e-08
5.231345736e-08
2.307027314e-08
2.305291856e-08
2.298252209e-08
2.285262739e-08
2.26732912e-08
9.462428598e-09
9.45932835e-09
9.438280437e-09
9.396017429e-09
9.3366201e-09
3.683175827e-09
3.683599976e-09
3.678584751e-09
3.666611126e-09
3.649255463e-09
1.359496376e-09
1.360279838e-09
1.359647781e-09
1.356947553e-09
1.352759372e-09
4.753216931e-10
4.758244714e-10
4.76049302e-10
4.757350958e-10
4.750857022e-10
1.574044816e-10
1.57651882e-10
1.578843913e-10
1.580037239e-10
1.580779568e-10
4.927154106e-11
4.937515454e-11
4.94986678e-11
4.960768422e-11
4.972333971e-11
1.448969937e-11
1.452765354e-11
1.457811596e-11
1.463005953e-11
1.469011227e-11
3.814564182e-12
3.825313042e-12
3.842530028e-12
3.864306491e-12
3.892141815e-12
9.593309417e-13
9.640873524e-13
9.726894073e-13
9.812153757e-13
9.912629953e-13
2.172743016e-13
2.185184626e-13
2.205835417e-13
2.231620168e-13
2.263793192e-13
4.175214897e-14
4.211144341e-14
4.273830112e-14
4.356382216e-14
4.460535419e-14
6.946585183e-15
7.028798882e-15
7.175537705e-15
7.371283711e-15
7.617398002e-15
8.106071329e-16
8.227370394e-16
8.43366431e-16
8.699126171e-16
9.027958732e-16
5.105681089e-17
5.217360161e-17
5.38429015e-17
5.579920356e-17
5.813918054e-17
5.385030426e-19
5.844997527e-19
6.39402183e-19
6.969604262e-19
7.677809714e-19
0
0
0
0
0
0
0
0
0
0
1.535752263e-18
1.582138374e-18
1.684842386e-18
1.838537132e-18
2.045251826e-18
2.598899681e-17
2.587700706e-17
2.560209417e-17
2.510200444e-17
2.428278268e-17
1.339819256e-16
1.315999004e-16
1.263536962e-16
1.182146322e-16
1.070009897e-16
1.800868857e-16
1.760784703e-16
1.674292797e-16
1.545353568e-16
1.377114418e-16
2.419787049e-16
2.377438064e-16
2.286848533e-16
2.1536559e-16
1.982872216e-16
2.853741731e-16
2.83827205e-16
2.806831519e-16
2.764516235e-16
2.716685647e-16
4.603488454e-16
4.603384222e-16
4.60293355e-16
4.600429518e-16
4.59361059e-16
5.432980642e-16
5.425419422e-16
5.409248414e-16
5.384770878e-16
5.351496994e-16
4.642872859e-16
4.64118005e-16
4.636714542e-16
4.628275816e-16
4.614144677e-16
3.705800966e-16
3.707014173e-16
3.709097425e-16
3.711635641e-16
3.714701959e-16
1.096790069e-06
5.102659499e-05
7.664728533e-05
9.840638753e-05
0.0001506895774
0.0002186191617
0.000278266291
0.0003167274947
0.0003488780297
0.0003904588178
0.0004444315654
0.0005030858694
0.0005596698233
0.0006140827316
0.0006717441288
0.0007353367744
0.0008012241165
0.0008559976547
0.0008629600134
0.0007990399951
0.0006863648878
0.0005627273284
0.0004504077478
0.0003520906824
0.0002675595189
0.0001959685528
0.000141467645
9.982748314e-05
6.91326777e-05
4.711968717e-05
3.161203537e-05
2.081489223e-05
1.338829175e-05
8.372281512e-06
5.071925615e-06
2.969608329e-06
1.677498447e-06
9.125113317e-07
4.768759412e-07
2.387840285e-07
1.142557248e-07
5.21188602e-08
2.262183806e-08
9.32953455e-09
3.652219018e-09
1.356059802e-09
4.77052856e-10
1.590166647e-10
5.010952287e-11
1.483126945e-11
3.940431189e-12
1.006639245e-12
2.308877647e-13
4.588499131e-14
7.901787616e-15
9.448038201e-16
6.195652795e-17
9.318925793e-19
0
0
2.198323162e-18
2.342348068e-17
9.720553211e-17
1.241078967e-16
1.847145569e-16
2.684153317e-16
4.581536719e-16
5.321072328e-16
4.600099662e-16
3.718681107e-16
2.386334954e-06
2.202261805e-06
1.303372076e-07
1.174141173e-08
6.813561166e-10
0.0001573110634
0.0008176200577
4.699388856e-05
1.402186547e-06
5.730937133e-08
0.0001806530101
0.0004438661884
4.618822688e-05
2.595604119e-06
1.115769475e-07
0.0002054710134
0.0004589506303
0.0008389570996
6.354552669e-05
3.117632067e-06
0.0003170351904
0.0008808542096
0.002353957353
0.0002354398096
1.656467576e-05
0.0004371380156
0.001087850389
0.002289950015
0.0002930504374
2.69277938e-05
0.0005106006673
0.001057989214
0.001745108333
0.0002652383358
3.055111513e-05
0.0005301198136
0.0009190822813
0.001224613815
0.0004971659426
6.448747844e-05
0.0005493094955
0.0009086740188
0.001337571953
0.001814564506
0.0002603791695
0.0005955449188
0.001000286202
0.001596565748
0.002580327285
0.000419388355
0.0006632850428
0.001114440763
0.001779722532
0.002792308031
0.0005062688203
0.0007308940595
0.001184439474
0.001787426993
0.002553480382
0.000552789343
0.0007874324614
0.001213498502
0.001724713386
0.00229900615
0.001326042333
0.0008384318411
0.001243559345
0.001724641287
0.002304516669
0.002121428683
0.0008946597758
0.001295906706
0.001786654443
0.002417928072
0.002712983514
0.0009588014217
0.001362036042
0.001858455395
0.002487974897
0.002949744582
0.001022134175
0.001417314679
0.00189564177
0.002480789893
0.002950401046
0.001066499395
0.001440311165
0.001895495175
0.002473148491
0.002949381257
0.001038093952
0.001329657438
0.001667044168
0.002098058191
0.002159468428
0.0009065505292
0.001036511124
0.001110656489
0.001117493505
0.001014618897
0.0007311987506
0.0007524251443
0.0007128199304
0.0006086148091
0.0004486487748
0.0005712380878
0.0005507461581
0.0004948870313
0.000410849008
0.0003137873116
0.0004439814716
0.0004139691372
0.0003659363843
0.0003067944318
0.0002448728766
0.0003420077959
0.000314767705
0.0002781995926
0.00023659903
0.000194433325
0.0002587633337
0.0002377065945
0.0002110651319
0.0001816467549
0.0001520015475
0.0001894955319
0.0001745157245
0.0001559339029
0.0001355947251
0.00011508903
0.0001371253408
0.0001269080066
0.0001141837968
0.0001002157403
8.606066654e-05
9.704788158e-05
9.031779876e-05
8.183274112e-05
7.24454827e-05
6.285915085e-05
6.741022697e-05
6.309349794e-05
5.756381057e-05
5.138294466e-05
4.501196953e-05
4.608016091e-05
4.33716389e-05
3.983827545e-05
3.584110246e-05
3.167703777e-05
3.100261849e-05
2.933830057e-05
2.712070829e-05
2.457751439e-05
2.18970987e-05
2.047107348e-05
1.947165543e-05
1.810565792e-05
1.651488897e-05
1.481755225e-05
1.320424949e-05
1.262052379e-05
1.179752659e-05
1.082267257e-05
9.769316226e-06
8.280521128e-06
7.950855434e-06
7.468230556e-06
6.885777166e-06
6.24830669e-06
5.030466064e-06
4.851409136e-06
4.577180539e-06
4.239411719e-06
3.864876133e-06
2.953543563e-06
2.860414104e-06
2.709908366e-06
2.520373918e-06
2.307374123e-06
1.673029637e-06
1.626847997e-06
1.547232411e-06
1.444521845e-06
1.327495211e-06
9.125946578e-07
8.908972252e-07
8.503980069e-07
7.967479639e-07
7.34744727e-07
4.782601094e-07
4.68699583e-07
4.489533484e-07
4.220114226e-07
3.904094896e-07
2.401724376e-07
2.362858616e-07
2.270970555e-07
2.141326837e-07
1.986852237e-07
1.152681553e-07
1.138510707e-07
1.097899056e-07
1.038339799e-07
9.661617672e-08
5.274737036e-08
5.231047198e-08
5.061436682e-08
4.801111869e-08
4.479743518e-08
2.297044593e-08
2.287555672e-08
2.220959274e-08
2.113034432e-08
1.977048544e-08
9.505930574e-09
9.507540997e-09
9.26303882e-09
8.839708259e-09
8.293987441e-09
3.734534965e-09
3.751765383e-09
3.668365212e-09
3.511561206e-09
3.30420832e-09
1.391710473e-09
1.404495524e-09
1.378316366e-09
1.323623549e-09
1.249162475e-09
4.914585209e-10
4.983375764e-10
4.909807587e-10
4.730873044e-10
4.478272485e-10
1.644684393e-10
1.675810305e-10
1.657271937e-10
1.602054617e-10
1.521018229e-10
5.203838975e-11
5.328107926e-11
5.288806818e-11
5.128885456e-11
4.883755986e-11
1.546898544e-11
1.592027858e-11
1.587036986e-11
1.545687307e-11
1.477611278e-11
4.13379817e-12
4.285966743e-12
4.298173347e-12
4.205055257e-12
4.032418111e-12
1.063570685e-12
1.111211027e-12
1.11996663e-12
1.09958803e-12
1.058098995e-12
2.464238894e-13
2.603021948e-13
2.64343027e-13
2.61019547e-13
2.523493145e-13
4.98516934e-14
5.364133225e-14
5.51046876e-14
5.488429964e-14
5.351973398e-14
8.738243527e-15
9.566839359e-15
9.931010101e-15
9.959775796e-15
9.761639339e-15
1.081100425e-15
1.211870078e-15
1.269132584e-15
1.275801178e-15
1.250187844e-15
7.652499546e-17
9.005495916e-17
9.574235309e-17
9.651085427e-17
9.461398335e-17
1.511130937e-18
2.105556237e-18
2.355349807e-18
2.38742832e-18
2.328488117e-18
0
0
0
0
0
0
0
0
3.661400646e-20
0
2.340800697e-18
2.430491065e-18
2.495996168e-18
2.161287783e-18
1.619053416e-18
2.182285847e-17
1.85180268e-17
1.444670565e-17
9.859164345e-18
5.247712396e-18
8.076508946e-17
5.290928708e-17
2.704972583e-17
1.015624747e-17
2.331038297e-18
1.024670236e-16
6.85668918e-17
3.909521862e-17
1.771001558e-17
5.718789456e-18
1.631064897e-16
1.304845318e-16
1.032294178e-16
8.46025165e-17
7.639832981e-17
2.632255075e-16
2.583229835e-16
2.568344133e-16
2.578477141e-16
2.603062544e-16
4.543677095e-16
4.487006199e-16
4.430978568e-16
4.355780741e-16
4.255616943e-16
5.264296908e-16
5.16399668e-16
5.047560512e-16
4.904157697e-16
4.726702773e-16
4.579018455e-16
4.518979021e-16
4.428569971e-16
4.310807064e-16
4.172887441e-16
3.731597953e-16
3.746241347e-16
3.749191258e-16
3.73846296e-16
3.712859773e-16
1.350338648e-10
9.312990523e-12
4.246613141e-13
0
0
0
0
0
0
0
0
0
0
0
0
0
0
0
0
0
0
0
0
0
0
0
0
0
0
0
0
0
0
0
0
0
0
0
0
0
0
0
0
0
0
0
0
0
0
0
0
0
0
0
0
0
0
0
0
0
9.469169295e-09
8.076303897e-10
5.626969248e-11
6.305581857e-12
1.221255284e-12
2.258860531e-13
0
0
0
0
0
0
0
0
0
0
0
0
0
0
0
0
0
0
0
0
0
0
0
0
0
0
0
0
0
0
0
0
0
0
0
0
0
0
0
0
0
0
0
0
0
0
0
0
0
0
0
0
0
0
2.914472056e-08
5.216561387e-09
5.191063448e-10
6.498907003e-11
1.441768586e-11
4.748881714e-12
1.805575966e-12
6.208699941e-13
1.131891225e-13
0
0
0
0
0
0
0
0
0
0
0
0
0
0
0
0
0
0
0
0
0
0
0
0
0
0
0
0
0
0
0
0
0
0
0
0
0
0
0
0
0
0
0
0
0
0
0
0
0
0
0
5.46414451e-07
1.187139456e-07
1.290106351e-08
1.03482415e-09
1.620680848e-10
4.650834864e-11
1.820681976e-11
7.73352786e-12
3.127800015e-12
1.076820223e-12
2.341833686e-13
0
0
0
0
0
0
0
0
0
0
0
0
0
0
0
0
0
0
0
0
0
0
0
0
0
0
0
0
0
0
0
0
0
0
0
0
0
0
0
0
0
0
0
0
0
0
0
0
0
1.702233491e-06
5.020825834e-07
1.208229667e-07
1.393651678e-08
1.648518339e-09
3.585630523e-10
1.194339215e-10
4.752086826e-11
1.953620961e-11
7.674768912e-12
2.67618893e-12
7.177635054e-13
7.052806363e-14
0
0
0
0
0
0
0
0
0
0
0
0
0
0
0
0
0
0
0
0
0
0
0
0
0
0
0
0
0
0
0
0
0
0
0
0
0
0
0
0
0
0
0
0
0
0
0
1.64347344e-06
5.665206413e-07
2.626209548e-07
7.675510258e-08
1.007536846e-08
1.689724758e-09
4.681352306e-10
1.701909051e-10
6.748318974e-11
2.65325872e-11
9.769944334e-12
3.164547005e-12
7.786109523e-13
6.712045419e-14
0
0
0
0
0
0
0
0
0
0
0
0
0
0
0
0
0
0
0
0
0
0
0
0
0
0
0
0
0
0
0
0
0
0
0
0
0
0
0
0
0
0
0
0
0
0
1.964289126e-06
4.310226368e-07
3.097259778e-07
2.010749111e-07
5.338800329e-08
7.458688222e-09
1.57157586e-09
4.959900766e-10
1.856552392e-10
7.143617423e-11
2.643501785e-11
8.980977135e-12
2.621185628e-12
5.450688816e-13
1.442444965e-14
0
0
0
0
0
0
0
0
0
0
0
0
0
0
0
0
0
0
0
0
0
0
0
0
0
0
0
0
0
0
0
0
0
0
0
0
0
0
0
0
0
0
0
0
0
4.861762012e-06
4.646677903e-07
3.194049883e-07
3.187201702e-07
1.893222418e-07
3.575179729e-08
5.584896841e-09
1.414043984e-09
4.746940786e-10
1.741695531e-10
6.315985645e-11
2.151105653e-11
6.581979302e-12
1.659605168e-12
2.511899549e-13
0
0
0
0
0
0
0
0
0
0
0
0
0
0
0
0
0
0
0
0
0
0
0
0
0
0
0
0
0
0
0
0
0
0
0
0
0
0
0
0
0
0
0
0
0
2.300930922e-05
1.548684452e-06
5.12630783e-07
4.830616652e-07
4.339601851e-07
1.626013954e-07
2.30268293e-08
4.259821496e-09
1.201826744e-09
4.0384808e-10
1.395970229e-10
4.632779673e-11
1.4166536e-11
3.787286092e-12
7.647836799e-13
4.559258338e-14
0
0
0
0
0
0
0
0
0
0
0
0
0
0
0
0
0
0
0
0
0
0
0
0
0
0
0
0
0
0
0
0
0
0
0
0
0
0
0
0
0
0
0
0
4.609248159e-05
3.376809197e-06
5.959684006e-07
5.82939903e-07
6.549427055e-07
4.524033565e-07
9.344929576e-08
1.281816687e-08
2.890693192e-09
8.640703495e-10
2.801467786e-10
8.937525943e-11
2.677594313e-11
7.240438237e-12
1.623071591e-12
2.121817735e-13
0
0
0
0
0
0
0
0
0
0
0
0
0
0
0
0
0
0
0
0
0
0
0
0
0
0
0
0
0
0
0
0
0
0
0
0
0
0
0
0
0
0
0
0
6.466171227e-05
6.056267625e-06
6.176879962e-07
5.564770752e-07
8.231444913e-07
8.218318133e-07
2.814799602e-07
3.878239135e-08
6.817844921e-09
1.740527564e-09
5.146952014e-10
1.548868874e-10
4.474154399e-11
1.197043602e-11
2.79974144e-12
4.685353927e-13
4.651407183e-15
0
0
0
0
0
0
0
0
0
0
0
0
0
0
0
0
0
0
0
0
0
0
0
0
0
0
0
0
0
0
0
0
0
0
0
0
0
0
0
0
0
0
0
7.385742678e-05
7.769773744e-06
6.941813076e-07
4.517819875e-07
9.610021618e-07
1.215517928e-06
6.797627592e-07
1.14973042e-07
1.735949442e-08
3.563073833e-09
9.095350547e-10
2.491566324e-10
6.775884734e-11
1.760767024e-11
4.178293694e-12
7.877196137e-13
4.654983516e-14
0
0
0
0
0
0
0
0
0
0
0
0
0
0
0
0
0
0
0
0
0
0
0
0
0
0
0
0
0
0
0
0
0
0
0
0
0
0
0
0
0
0
0
0.000190842376
2.211539209e-05
2.047300929e-06
4.956133318e-07
1.18196423e-06
1.75247164e-06
1.314572992e-06
3.187822038e-07
4.320970369e-08
7.27771161e-09
1.529230634e-09
3.672902417e-10
9.208022651e-11
2.301355384e-11
5.492691079e-12
1.117825413e-12
1.096889006e-13
0
0
0
0
0
0
0
0
0
0
0
0
0
0
0
0
0
0
0
0
0
0
0
0
0
0
0
0
0
0
0
0
0
0
0
0
0
0
0
0
0
0
0
0.0003378168332
4.443529342e-05
4.396396984e-06
6.243340556e-07
1.443594159e-06
2.483688775e-06
2.242134622e-06
7.881310675e-07
1.061710753e-07
1.539147064e-08
2.598097979e-09
5.259541078e-10
1.182643361e-10
2.804240194e-11
6.693866358e-12
1.446006911e-12
1.866153654e-13
0
0
0
0
0
0
0
0
0
0
0
0
0
0
0
0
0
0
0
0
0
0
0
0
0
0
0
0
0
0
0
0
0
0
0
0
0
0
0
0
0
0
0
0.000474566987
7.045420586e-05
8.680931832e-06
1.07036354e-06
1.864471671e-06
3.505078129e-06
3.377851689e-06
1.62179643e-06
2.59295762e-07
3.425640458e-08
4.425650301e-09
7.102749725e-10
1.394168172e-10
3.136998684e-11
7.551506729e-12
1.721258291e-12
2.616165599e-13
9.36388248e-17
0
0
0
0
0
0
0
0
0
0
0
0
0
0
0
0
0
0
0
0
0
0
0
0
0
0
0
0
0
0
0
0
0
0
0
0
0
0
0
0
0
0
0.0005695010338
9.415812951e-05
1.311657672e-05
1.725504745e-06
2.779266524e-06
5.099355617e-06
4.756864402e-06
2.646917113e-06
5.726191915e-07
7.805366071e-08
7.842382345e-09
9.354364124e-10
1.54829818e-10
3.334988613e-11
8.204540718e-12
1.963634614e-12
3.335782243e-13
1.178480688e-15
0
0
0
0
0
0
0
0
0
0
0
0
0
0
0
0
0
0
0
0
0
0
0
0
0
0
0
0
0
0
0
0
0
0
0
0
0
0
0
0
0
0
0.0006225522158
0.0001092412091
1.680372425e-05
2.509013336e-06
5.239372405e-06
7.701452473e-06
6.349100456e-06
3.534632741e-06
1.099182646e-06
1.671416936e-07
1.439761449e-08
1.291827162e-09
1.823801451e-10
3.806654259e-11
9.467136629e-12
2.324346072e-12
4.28984959e-13
8.513143793e-15
0
0
0
0
0
0
0
0
0
0
0
0
0
0
0
0
0
0
0
0
0
0
0
0
0
0
0
0
0
0
0
0
0
0
0
0
0
0
0
0
0
0
0.0006332676523
0.0001132553785
1.720358477e-05
5.856844698e-06
1.097171144e-05
1.126514692e-05
7.969291526e-06
4.266230259e-06
1.617617092e-06
3.449019709e-07
3.34573933e-08
2.594561842e-09
3.049586483e-10
5.573463865e-11
1.290518141e-11
3.099740052e-12
6.018795965e-13
3.298552871e-14
0
0
0
0
0
0
0
0
0
0
0
0
0
0
0
0
0
0
0
0
0
0
0
0
0
0
0
0
0
0
0
0
0
0
0
0
0
0
0
0
0
0
0.0004488391263
7.767424318e-05
1.199469097e-05
1.687552778e-05
1.927591948e-05
1.505628454e-05
9.40228054e-06
4.903558119e-06
2.090897117e-06
6.515062359e-07
1.161152114e-07
1.105134932e-08
9.666784083e-10
1.214022891e-10
2.207059536e-11
4.781478873e-12
9.430981279e-13
9.189205095e-14
0
0
0
0
0
0
0
0
0
0
0
0
0
0
0
0
0
0
0
0
0
0
0
0
0
0
0
0
0
0
0
0
0
0
0
0
0
0
0
0
0
0
0.0002035495724
4.741115113e-05
4.743963437e-05
3.881660547e-05
2.822894574e-05
1.836146456e-05
1.075559325e-05
5.644280038e-06
2.615806889e-06
1.032266537e-06
3.044079329e-07
5.21389725e-08
4.948273607e-09
4.349533316e-10
5.333347464e-11
9.104822878e-12
1.701978595e-12
2.289936746e-13
0
0
0
0
0
0
0
0
0
0
0
0
0
0
0
0
0
0
0
0
0
0
0
0
0
0
0
0
0
0
0
0
0
0
0
0
0
0
0
0
0
0
0.0002316888425
0.0001303129824
8.202321116e-05
5.319848916e-05
3.402365967e-05
2.086344992e-05
1.204218537e-05
6.465671784e-06
3.192906657e-06
1.423216592e-06
5.484333528e-07
1.593054906e-07
2.690622621e-08
2.488536675e-09
2.10458909e-10
2.431592798e-11
3.712339141e-12
5.54192655e-13
1.243687842e-14
0
0
0
0
0
0
0
0
0
0
0
0
0
0
0
0
0
0
0
0
0
0
0
0
0
0
0
0
0
0
0
0
0
0
0
0
0
0
0
0
0
0.0002132015637
0.0001384484104
8.981185949e-05
5.791202399e-05
3.662333517e-05
2.238845019e-05
1.309091091e-05
7.261894606e-06
3.789453897e-06
1.83605262e-06
8.069773826e-07
3.07028255e-07
8.792969737e-08
1.445529645e-08
1.267646116e-09
1.006802632e-10
1.062939053e-11
1.407598234e-12
1.184431801e-13
0
0
0
0
0
0
0
0
0
0
0
0
0
0
0
0
0
0
0
0
0
0
0
0
0
0
0
0
0
0
0
0
0
0
0
0
0
0
0
0
0
0.0001814528814
0.0001266042459
8.597608329e-05
5.697235929e-05
3.672945824e-05
2.290745588e-05
1.375127609e-05
7.906893864e-06
4.32861628e-06
2.234807527e-06
1.070749624e-06
4.633054345e-07
1.72402101e-07
4.784915541e-08
7.459672849e-09
6.015939669e-10
4.361764636e-11
4.203713448e-12
4.20302145e-13
1.546782432e-16
0
0
0
0
0
0
0
0
0
0
0
0
0
0
0
0
0
0
0
0
0
0
0
0
0
0
0
0
0
0
0
0
0
0
0
0
0
0
0
0
0.0001506384077
0.0001097828499
7.727011849e-05
5.271069575e-05
3.488149332e-05
2.234317365e-05
1.381624121e-05
8.224221548e-06
4.691970061e-06
2.546951163e-06
1.300024726e-06
6.12306854e-07
2.582116474e-07
9.261762907e-08
2.441291754e-08
3.518077083e-09
2.527744094e-10
1.689442071e-11
1.394856808e-12
5.556031924e-14
0
0
0
0
0
0
0
0
0
0
0
0
0
0
0
0
0
0
0
0
0
0
0
0
0
0
0
0
0
0
0
0
0
0
0
0
0
0
0
0
0.0001207261924
9.030315638e-05
6.520650357e-05
4.593107189e-05
3.122445596e-05
2.056038184e-05
1.310149637e-05
8.059199881e-06
4.769550188e-06
2.699853711e-06
1.448339822e-06
7.261243064e-07
3.331410662e-07
1.35330575e-07
4.603546399e-08
1.124916713e-08
1.455957907e-09
9.413942798e-11
5.660243498e-12
3.345650458e-13
0
0
0
0
0
0
0
0
0
0
0
0
0
0
0
0
0
0
0
0
0
0
0
0
0
0
0
0
0
0
0
0
0
0
0
0
0
0
0
0
9.329329452e-05
7.18115245e-05
5.355824242e-05
3.870998602e-05
2.708449538e-05
1.832552159e-05
1.198781166e-05
7.592698759e-06
4.637887902e-06
2.718792537e-06
1.518055997e-06
7.985687441e-07
3.896157074e-07
1.722500475e-07
6.652532325e-08
2.109554735e-08
4.654123624e-09
5.224655525e-10
2.968750526e-11
1.518023457e-12
1.691514017e-14
0
0
0
0
0
0
0
0
0
0
0
0
0
0
0
0
0
0
0
0
0
0
0
0
0
0
0
0
0
0
0
0
0
0
0
0
0
0
0
7.088206439e-05
5.56588169e-05
4.236166582e-05
3.128687514e-05
2.243337479e-05
1.56035999e-05
1.050519842e-05
6.836793008e-06
4.2905349e-06
2.590427981e-06
1.494777402e-06
8.169890695e-07
4.177583985e-07
1.963846777e-07
8.269431003e-08
2.99263829e-08
8.668798109e-09
1.668855751e-09
1.541662114e-10
7.361492388e-12
2.289663117e-13
0
0
0
0
0
0
0
0
0
0
0
0
0
0
0
0
0
0
0
0
0
0
0
0
0
0
0
0
0
0
0
0
0
0
0
0
0
0
0
5.248109221e-05
4.190086935e-05
3.247355036e-05
2.445695456e-05
1.790735027e-05
1.274313174e-05
8.801177989e-06
5.882041136e-06
3.792403109e-06
2.348342665e-06
1.39222767e-06
7.845272986e-07
4.159918717e-07
2.046957081e-07
9.16388623e-08
3.623624276e-08
1.206473557e-08
3.104034612e-09
4.999111801e-10
3.599510697e-11
1.304235657e-12
0
0
0
0
0
0
0
0
0
0
0
0
0
0
0
0
0
0
0
0
0
0
0
0
0
0
0
0
0
0
0
0
0
0
0
0
0
0
0
3.804355697e-05
3.082606958e-05
2.42801614e-05
1.860676968e-05
1.387694768e-05
1.006781693e-05
7.096681292e-06
4.849030565e-06
3.199567683e-06
2.030527722e-06
1.232845345e-06
7.117367732e-07
3.881778516e-07
1.97728987e-07
9.258833567e-08
3.896157275e-08
1.423795651e-08
4.278641909e-09
9.678998542e-10
1.279390318e-10
7.138646396e-12
1.230671732e-13
0
0
0
0
0
0
0
0
0
0
0
0
0
0
0
0
0
0
0
0
0
0
0
0
0
0
0
0
0
0
0
0
0
0
0
0
0
0
2.707185824e-05
2.222583138e-05
1.775553223e-05
1.381124154e-05
1.046133752e-05
7.71180026e-06
5.525826744e-06
3.840931099e-06
2.58187183e-06
1.670867161e-06
1.036032344e-06
6.117287369e-07
3.409976206e-07
1.7836178e-07
8.640197973e-08
3.806686156e-08
1.486507341e-08
4.93156435e-09
1.299651039e-09
2.463177765e-10
2.499043748e-11
9.02499121e-13
0
0
0
0
0
0
0
0
0
0
0
0
0
0
0
0
0
0
0
0
0
0
0
0
0
0
0
0
0
0
0
0
0
0
0
0
0
0
1.889824954e-05
1.569224243e-05
1.26865715e-05
9.990720942e-06
7.663114343e-06
5.721187119e-06
4.15239975e-06
2.924305641e-06
1.993062093e-06
1.309752108e-06
8.256486026e-07
4.964475059e-07
2.826743179e-07
1.508283902e-07
7.493729978e-08
3.415222917e-08
1.398316612e-08
4.988679558e-09
1.45974581e-09
3.124629662e-10
4.545560622e-11
3.004951601e-12
8.455648847e-15
0
0
0
0
0
0
0
0
0
0
0
0
0
0
0
0
0
0
0
0
0
0
0
0
0
0
0
0
0
0
0
0
0
0
0
0
0
1.289643448e-05
1.081071307e-05
8.825806054e-06
7.019411097e-06
5.437638087e-06
4.099966101e-06
3.005222532e-06
2.137573464e-06
1.471823103e-06
9.779120144e-07
6.243095371e-07
3.807649259e-07
2.203827144e-07
1.200065092e-07
6.079677536e-08
2.843528737e-08
1.207098454e-08
4.534875781e-09
1.437862705e-09
3.510396447e-10
6.459504859e-11
7.055617651e-12
2.263387468e-13
0
0
0
0
0
0
0
0
0
0
0
0
0
0
0
0
0
0
0
0
0
0
0
0
0
0
0
0
0
0
0
0
0
0
0
0
0
8.563600922e-06
7.235139513e-06
5.953613195e-06
4.772486372e-06
3.725877584e-06
2.830890314e-06
2.090792602e-06
1.498483831e-06
1.03980865e-06
6.965050824e-07
4.486609004e-07
2.765578039e-07
1.620948154e-07
8.965820157e-08
4.632443172e-08
2.212073878e-08
9.658542197e-09
3.775981319e-09
1.278845577e-09
3.373367754e-10
5.178498358e-11
5.984827997e-12
2.641370098e-13
0
0
0
0
0
0
0
0
0
0
0
0
0
0
0
0
0
0
0
0
0
0
0
0
0
0
0
0
0
0
0
0
0
0
0
0
0
5.510681619e-06
4.686417291e-06
3.881418496e-06
3.131231234e-06
2.459743317e-06
1.880205181e-06
1.396881451e-06
1.007026116e-06
7.029229968e-07
4.737498528e-07
3.072102265e-07
1.908331677e-07
1.129064147e-07
6.317579368e-08
3.314896e-08
1.6120977e-08
7.196944726e-09
2.900942612e-09
1.01957529e-09
2.840393386e-10
4.577241232e-11
0
0
0
0
0
0
0
0
0
0
0
0
0
0
0
0
0
0
0
0
0
0
0
0
0
0
0
0
0
0
0
0
0
0
0
0
0
0
0
3.426892276e-06
2.930727151e-06
2.440584121e-06
1.979246349e-06
1.562639839e-06
1.200222591e-06
8.958151377e-07
6.48699176e-07
4.548186032e-07
3.079353735e-07
2.006687634e-07
1.253538001e-07
7.469185429e-08
4.218345475e-08
2.240434298e-08
1.107760719e-08
5.037101928e-09
2.081322877e-09
7.579637999e-10
2.307211357e-10
3.953116069e-11
0
0
0
0
0
0
0
0
0
0
0
0
0
0
0
0
0
0
0
0
0
0
0
0
0
0
0
0
0
0
0
0
0
0
0
0
0
0
0
2.05567955e-06
1.766707838e-06
1.478134264e-06
1.204023247e-06
9.545214952e-07
7.359670298e-07
5.512828567e-07
4.005663538e-07
2.817741189e-07
1.914145034e-07
1.251883055e-07
7.853077409e-08
4.703435893e-08
2.674463717e-08
1.433742875e-08
7.183550922e-09
3.323143801e-09
1.399765145e-09
5.224528845e-10
1.593151082e-10
2.688858813e-11
0
0
0
0
0
0
0
0
0
0
0
0
0
0
0
0
0
0
0
0
0
0
0
0
0
0
0
0
0
0
0
0
0
0
0
0
0
0
0
1.187771337e-06
1.025231524e-06
8.612309089e-07
7.041228569e-07
5.600950348e-07
4.331652772e-07
3.253554475e-07
2.369957549e-07
1.671042101e-07
1.137834992e-07
7.460577547e-08
4.694193732e-08
2.82247718e-08
1.613621107e-08
8.71637758e-09
4.412795035e-09
2.071244284e-09
8.853778702e-10
3.359318294e-10
1.037641213e-10
2.371019477e-11
0
0
0
0
0
0
0
0
0
0
0
0
0
0
0
0
0
0
0
0
0
0
0
0
0
0
0
0
0
0
0
0
0
0
0
0
0
0
0
6.599518917e-07
5.718154266e-07
4.82007182e-07
3.952967593e-07
3.152949133e-07
2.444184288e-07
1.839596369e-07
1.342378157e-07
9.480287991e-08
6.465503534e-08
4.246756964e-08
2.677877584e-08
1.614849548e-08
9.270014649e-09
5.036846123e-09
2.571751208e-09
1.221383729e-09
5.309483437e-10
2.030742926e-10
6.246376997e-11
1.005695656e-11
6.843942204e-14
0
0
0
0
0
0
0
0
0
0
0
0
0
0
0
0
0
0
0
0
0
0
0
0
0
0
0
0
0
0
0
0
0
0
0
0
0
0
3.518955773e-07
3.059280448e-07
2.586452154e-07
2.126620921e-07
1.699932004e-07
1.320190626e-07
9.951105758e-08
7.270370447e-08
5.139964644e-08
3.508988874e-08
2.307488602e-08
1.457253059e-08
8.806940815e-09
5.071868981e-09
2.769083683e-09
1.423513574e-09
6.818185927e-10
2.99614302e-10
1.142274444e-10
3.402293149e-11
3.379964719e-12
0
0
0
0
0
0
0
0
0
0
0
0
0
0
0
0
0
0
0
0
0
0
0
0
0
0
0
0
0
0
0
0
0
0
0
0
0
0
0
1.796623905e-07
1.566659185e-07
1.327952035e-07
1.094235513e-07
8.762419195e-08
6.814626491e-08
5.142217921e-08
3.76009422e-08
2.660075644e-08
1.81714613e-08
1.195847085e-08
7.560337635e-09
4.576712998e-09
2.6424163e-09
1.448196235e-09
7.485839405e-10
3.613181346e-10
1.599024054e-10
6.003291609e-11
1.629449005e-11
2.409653376e-14
0
0
0
0
0
0
0
0
0
0
0
0
0
0
0
0
0
0
0
0
0
0
0
0
0
0
0
0
0
0
0
0
0
0
0
0
0
0
0
8.763171451e-08
7.662824357e-08
6.510369377e-08
5.374749476e-08
4.310460503e-08
3.3561265e-08
2.534599407e-08
1.854447471e-08
1.312499826e-08
8.969441324e-09
5.905653452e-09
3.736547218e-09
2.264814067e-09
1.310232565e-09
7.203171561e-10
3.740149088e-10
1.815418435e-10
8.021888356e-11
3.098949897e-11
6.86429678e-12
2.171576331e-13
0
0
0
0
0
0
0
0
0
0
0
0
0
0
0
0
0
0
0
0
0
0
0
0
0
0
0
0
0
0
0
0
0
0
0
0
0
0
0
4.075177275e-08
3.572968971e-08
3.042221055e-08
2.515941478e-08
2.020467865e-08
1.574707718e-08
1.190073741e-08
8.711311633e-09
6.167461993e-09
4.21584893e-09
2.776762181e-09
1.757868698e-09
1.066498538e-09
6.179029538e-10
3.404788919e-10
1.77256524e-10
8.609629267e-11
3.743804738e-11
1.397475039e-11
1.542373956e-12
0
0
0
0
0
0
0
0
0
0
0
0
0
0
0
0
0
0
0
0
0
0
0
0
0
0
0
0
0
0
0
0
0
0
0
0
0
0
0
0
1.803788429e-08
1.585641421e-08
1.352971667e-08
1.120800205e-08
9.012340627e-09
7.030564026e-09
5.316617183e-09
3.893452969e-09
2.757294707e-09
1.88516323e-09
1.242002109e-09
7.865938886e-10
4.775525426e-10
2.769682443e-10
1.529029224e-10
7.979869951e-11
3.886369113e-11
1.70255276e-11
6.586303614e-12