/*--------------------------------*- C++ -*----------------------------------*\
  =========                 |
  \\      /  F ield         | OpenFOAM: The Open Source CFD Toolbox
   \\    /   O peration     | Website:  https://openfoam.org
    \\  /    A nd           | Version:  10
     \\/     M anipulation  |
\*---------------------------------------------------------------------------*/
FoamFile
{
    format      ascii;
    class       volScalarField;
    location    "0.02498436188";
    object      C2H2;
}
// * * * * * * * * * * * * * * * * * * * * * * * * * * * * * * * * * * * * * //

dimensions      [0 0 0 0 0 0 0];

internalField   nonuniform List<scalar> 
5170
(
0
0
0
0
0
0
0
0
0
0
0
0
0
0
0
0
0
0
0
0
0
0
0
0
0
0
0
0
0
0
0
0
0
0
0
0
0
0
0
0
0
0
0
0
0
0
0
0
0
0
0
0
0
0
0
0
0
0
0
0
0
0
0
0
0
0
0
0
0
0
0
0
0
0
0
0
0
0
0
0
0
0
0
0
0
0
0
0
0
0
0
0
0
1.804830742e-13
8.952113873e-13
3.253615827e-13
2.051080707e-12
1.65896004e-11
1.157893763e-10
5.454250858e-10
2.154173693e-17
3.897088313e-19
4.767556671e-19
4.714833433e-19
4.717385702e-19
5.281101576e-17
0
0
0
1.939403317e-19
1.17219302e-17
6.398002456e-18
3.918575129e-19
0
0
1.946184087e-18
1.731065393e-17
0
0
0
8.036926128e-17
4.549710214e-17
0
2.979040125e-16
2.111935457e-15
0
0
0
1.53631608e-14
0
0
0
2.776998294e-13
2.374859003e-12
0
0
4.843918065e-13
6.737703339e-13
0
0
0
0
0
0
2.826445875e-11
0
1.460661826e-09
8.749903567e-11
0
0
5.959436034e-11
1.2650815e-09
0
3.850415895e-12
5.956954075e-11
4.555224565e-11
8.25354705e-11
0
0
4.272368118e-11
4.222500537e-12
5.415220299e-12
0
2.168534853e-11
2.017543474e-10
7.94301062e-12
0
1.503362694e-11
1.146727877e-10
3.403698741e-10
1.019266192e-10
3.937207962e-11
7.075914331e-11
1.938270636e-10
2.826028169e-10
1.336608214e-10
1.168257585e-10
1.434848941e-10
2.234187446e-10
2.862699462e-10
1.195345846e-10
2.054593766e-10
2.27511862e-10
2.162179556e-10
3.574913507e-10
1.549532723e-10
1.749138437e-10
1.966884963e-10
2.250467411e-10
2.084795876e-10
6.031238779e-10
3.0273373e-10
1.971122123e-10
2.967162324e-10
1.618924133e-10
3.583671056e-08
1.829762638e-08
3.355526896e-09
6.251900931e-10
3.793628315e-11
1.672465157e-11
1.23683286e-10
1.807422272e-09
2.551033742e-08
3.168063165e-07
7.321824856e-10
5.674349836e-09
8.248201098e-08
1.092869624e-06
1.185924377e-05
4.661768283e-09
3.268926331e-08
3.889134855e-07
3.844582916e-06
2.668093829e-05
1.812212242e-08
1.15090757e-07
1.147199828e-06
8.826392105e-06
4.336193373e-05
5.64699983e-08
3.28568816e-07
2.831402407e-06
1.778826269e-05
7.045698089e-05
1.591465752e-07
8.626196664e-07
6.381288439e-06
3.274840329e-05
0.0001096224332
4.135444828e-07
2.077298096e-06
1.292283367e-05
5.411137672e-05
0.0001541459384
9.872044085e-07
4.509173201e-06
2.323855817e-05
7.980690323e-05
0.0001946270189
2.19171889e-06
8.917216966e-06
3.767369572e-05
0.000107824695
0.000230951616
4.571267404e-06
1.623266551e-05
5.642996575e-05
0.000138578346
0.0002697231233
9.099154468e-06
2.776412863e-05
8.014183322e-05
0.0001738032028
0.0003154801574
1.775386592e-05
4.494749779e-05
0.0001092522974
0.0002144391534
0.0003670701206
3.366762797e-05
6.905733285e-05
0.0001442722058
0.0002599502542
0.0004210267905
5.807189509e-05
0.0001004663364
0.0001849753797
0.0003091877428
0.000475654632
9.481408758e-05
0.0001413262022
0.0002324785538
0.0003629496808
0.0005332053933
0.0001435216139
0.0001919879918
0.0002875950178
0.0004226964367
0.0005960262592
0.0002065678233
0.00025547654
0.0003529415615
0.0004897945373
0.0006634626629
0.0002849831665
0.0003315555022
0.000425890983
0.0005585915638
0.0007258995807
0.0003666319717
0.000408216665
0.0004932671363
0.0006118818372
0.0007574820706
0.0004408929821
0.0004747562842
0.0005427096316
0.0006333051728
0.0007366653094
0.0004955251179
0.0005177441891
0.000560442594
0.0006128286022
0.0006652917446
0.0005088624965
0.0005176828497
0.0005338839696
0.0005516670001
0.0005656479091
0.0004650617649
0.00046630521
0.0004676874997
0.0004670752964
0.0004624074013
0.0003881128494
0.0003866210728
0.0003827101195
0.0003758061
0.0003653935642
0.0003026429733
0.0003006700122
0.0002960006519
0.0002886482078
0.0002787216075
0.0002231408423
0.0002215051954
0.0002177590569
0.0002119984928
0.0002043873165
0.0001608899698
0.0001597242277
0.0001570255309
0.0001528938807
0.0001474867314
0.0001130055753
0.0001122172601
0.0001103902308
0.0001075991239
0.0001039618859
7.775010349e-05
7.723905392e-05
7.605269731e-05
7.424034839e-05
7.188117073e-05
5.260172666e-05
5.228057029e-05
5.153316674e-05
5.038990223e-05
4.890083174e-05
3.502408178e-05
3.482737283e-05
3.436797725e-05
3.366358875e-05
3.274463726e-05
2.289756533e-05
2.278002587e-05
2.250406282e-05
2.207948012e-05
2.152431261e-05
1.463318692e-05
1.456482503e-05
1.440314752e-05
1.415329388e-05
1.382573476e-05
9.098021601e-06
9.059509043e-06
8.96752307e-06
8.824600182e-06
8.636701259e-06
5.482729176e-06
5.4618082e-06
5.411221756e-06
5.33211752e-06
5.227810494e-06
3.194690923e-06
3.183780013e-06
3.15698088e-06
3.114756058e-06
3.058903976e-06
1.796644917e-06
1.791198149e-06
1.777558691e-06
1.755875248e-06
1.727096352e-06
9.733249822e-07
9.707368165e-07
9.640905218e-07
9.534091358e-07
9.391795569e-07
5.067213261e-07
5.055591353e-07
5.024743891e-07
4.974494408e-07
4.907266487e-07
2.528125144e-07
2.523255582e-07
2.509720789e-07
2.487284464e-07
2.457113629e-07
1.205432922e-07
1.203562594e-07
1.198003291e-07
1.18856957e-07
1.175802945e-07
5.479400441e-08
5.473029517e-08
5.451935979e-08
5.414940658e-08
5.364456067e-08
2.369787138e-08
2.36799173e-08
2.360743963e-08
2.347383057e-08
2.328936369e-08
9.737192101e-09
9.733938263e-09
9.712189667e-09
9.668596041e-09
9.607332246e-09
3.797169964e-09
3.797577817e-09
3.792364038e-09
3.779967629e-09
3.762003252e-09
1.404267418e-09
1.405064427e-09
1.404392614e-09
1.401579868e-09
1.397221278e-09
4.919561754e-10
4.924716528e-10
4.926965555e-10
4.923613807e-10
4.916745978e-10
1.632510289e-10
1.635057544e-10
1.637437504e-10
1.638634007e-10
1.639347201e-10
5.121429323e-11
5.132128431e-11
5.144848119e-11
5.156023719e-11
5.1678382e-11
1.509909846e-11
1.513847945e-11
1.519081568e-11
1.524458841e-11
1.530671857e-11
3.987710627e-12
3.999015075e-12
4.016895025e-12
4.039423696e-12
4.068250029e-12
1.008070132e-12
1.012945851e-12
1.020733745e-12
1.029563009e-12
1.040031603e-12
2.293167148e-13
2.306227909e-13
2.327749027e-13
2.35466181e-13
2.388301099e-13
4.437972289e-14
4.47515055e-14
4.540049565e-14
4.625617409e-14
4.734717164e-14
7.511808421e-15
7.597911446e-15
7.751532345e-15
7.956264236e-15
8.21402216e-15
9.075079334e-16
9.206440666e-16
9.430270264e-16
9.716549352e-16
1.005255462e-15
0
0
3.270580435e-19
3.159106149e-18
9.639074632e-18
0
0
0
0
0
0
0
0
0
0
0
0
0
0
0
1.614155248e-18
1.659909257e-18
1.760104581e-18
1.908296678e-18
2.09447761e-18
2.58095812e-17
2.568391587e-17
2.538102496e-17
2.484397855e-17
2.398532724e-17
1.313958027e-16
1.290017136e-16
1.237418804e-16
1.156262251e-16
1.045241621e-16
1.617600682e-16
1.57667097e-16
1.490349012e-16
1.36419797e-16
1.207479902e-16
2.232786037e-16
2.189630829e-16
2.099437756e-16
1.969335067e-16
1.810411477e-16
2.686912997e-16
2.67055385e-16
2.63916075e-16
2.598909246e-16
2.560656586e-16
4.583152362e-16
4.582410276e-16
4.580908933e-16
4.577244548e-16
4.569399306e-16
5.419498492e-16
5.411953703e-16
5.395812379e-16
5.371365138e-16
5.338013053e-16
4.648566741e-16
4.646631262e-16
4.641648137e-16
4.632453856e-16
4.617376945e-16
3.715827078e-16
3.716972868e-16
3.71894612e-16
3.721370318e-16
3.724302896e-16
1.093966326e-06
5.093799788e-05
7.640584613e-05
9.819884005e-05
0.000150571242
0.000218522655
0.0002780879673
0.0003166061797
0.0003489004637
0.0003905472038
0.000444525776
0.0005031076028
0.0005597443202
0.0006142964842
0.0006720914821
0.0007358171842
0.0008021931806
0.0008586280555
0.0008693971436
0.0008084103892
0.0006958793473
0.0005706197055
0.0004564933901
0.0003567891879
0.0002711691315
0.0001987137192
0.000143541941
0.0001013410453
7.019607131e-05
4.784458924e-05
3.209719679e-05
2.113646015e-05
1.35995484e-05
8.508985087e-06
5.158353954e-06
3.022666682e-06
1.709027728e-06
9.306138953e-07
4.868985415e-07
2.44119267e-07
1.169768525e-07
5.344388054e-08
2.323591976e-08
9.599754173e-09
3.764930569e-09
1.400574058e-09
4.936832077e-10
1.649000343e-10
5.207689598e-11
1.545303239e-11
4.118641996e-12
1.056064272e-12
2.435580309e-13
4.870675838e-14
8.513670115e-15
1.039773185e-15
2.049189551e-17
0
0
0
2.216115956e-18
2.310359224e-17
9.490304063e-17
1.089684674e-16
1.693052446e-16
2.543688023e-16
4.556546873e-16
5.307438524e-16
4.602612939e-16
3.728115214e-16
2.380988795e-06
2.201069598e-06
1.30236087e-07
1.173172977e-08
6.803285362e-10
0.0001571279093
0.0008177162221
4.695279677e-05
1.401019606e-06
5.720034189e-08
0.0001802035652
0.0004432064166
4.664460488e-05
2.611040664e-06
1.116905838e-07
0.0002050774307
0.0004588022382
0.0008393930885
6.35977683e-05
3.120388304e-06
0.000316823823
0.0008797587654
0.002344643283
0.00023393756
1.654696483e-05
0.0004369723092
0.001087562663
0.002286488987
0.0002927536709
2.690734956e-05
0.0005102833082
0.001056948896
0.001732100351
0.0002645360308
3.057692388e-05
0.0005299364953
0.0009189435619
0.00122534637
0.0005014623489
6.504445482e-05
0.0005493447457
0.0009087832611
0.001335648578
0.001772050013
0.0002571710165
0.0005956795756
0.001000532336
0.001599231171
0.002612832849
0.0004229243226
0.0006634310155
0.001114590071
0.001779700163
0.002794567874
0.0005065047984
0.000730958934
0.001184500837
0.001787370035
0.002552869102
0.0005527634528
0.0007875437483
0.001213621652
0.001724853845
0.002299214475
0.001324232335
0.000838715599
0.001243966849
0.00172514531
0.002305083023
0.002120583197
0.0008950762937
0.001296489466
0.001787434307
0.002418951002
0.002713035023
0.0009593896002
0.001362726849
0.001858857258
0.002487746665
0.002948709794
0.001023361919
0.00141871075
0.001896376566
0.002480469754
0.002965283227
0.001070031984
0.001445353577
0.001901287
0.002476595416
0.002953743783
0.001047454628
0.001346121266
0.00169321475
0.00212993922
0.002187731933
0.0009197221623
0.001058171208
0.001143525499
0.001147840885
0.0007741007842
0.000743318371
0.0007686316518
0.0007325748012
0.0006294152226
0.0004545287387
0.0005802776492
0.0005608823966
0.0005051304827
0.0004198834129
0.0003197289064
0.000450420819
0.0004204596761
0.0003718603258
0.0003116565137
0.0002483847001
0.0003467180172
0.0003192187607
0.0002821407154
0.0002398518739
0.0001969463763
0.0002622941012
0.0002409759875
0.0002139515292
0.0001840820329
0.0001539753456
0.0001921570136
0.0001769672619
0.0001581132447
0.0001374698999
0.0001166564878
0.000139134374
0.0001287626527
0.0001158449302
0.0001016634704
8.729206163e-05
9.851685949e-05
9.167989502e-05
8.30607567e-05
7.352538824e-05
6.378811746e-05
6.844558188e-05
6.405866041e-05
5.843951271e-05
5.215903403e-05
4.568586114e-05
4.678826806e-05
4.403557652e-05
4.044477253e-05
3.638295169e-05
3.215201299e-05
3.147800367e-05
2.978669959e-05
2.753329543e-05
2.494930126e-05
2.222624308e-05
2.078705694e-05
1.977143407e-05
1.838349592e-05
1.676738944e-05
1.504324681e-05
1.341237278e-05
1.281903793e-05
1.198273202e-05
1.099227731e-05
9.922197372e-06
8.415544628e-06
8.080278167e-06
7.589673262e-06
6.997707631e-06
6.349902961e-06
5.116053719e-06
4.93382198e-06
4.654900573e-06
4.311432557e-06
3.930621072e-06
3.006226981e-06
2.911362557e-06
2.758172485e-06
2.565309291e-06
2.34859357e-06
1.70441873e-06
1.657328236e-06
1.57622604e-06
1.471629496e-06
1.352467799e-06
9.306638285e-07
9.085117418e-07
8.672172132e-07
8.125327837e-07
7.493417438e-07
4.882898182e-07
4.785135216e-07
4.583572026e-07
4.308671461e-07
3.986265037e-07
2.455255987e-07
2.415430443e-07
2.32151211e-07
2.189070745e-07
2.031286211e-07
1.180059803e-07
1.165497045e-07
1.123925766e-07
1.062997115e-07
9.891723027e-08
5.408443297e-08
5.363337667e-08
5.189424862e-08
4.922703168e-08
4.593505697e-08
2.359204161e-08
2.349298386e-08
2.280884339e-08
2.170120982e-08
2.030593221e-08
9.78035686e-09
9.781243761e-09
9.529552305e-09
9.094305269e-09
8.533388506e-09
3.849395811e-09
3.866811917e-09
3.780766061e-09
3.619244541e-09
3.40572482e-09
1.437233315e-09
1.45029842e-09
1.423221303e-09
1.366758407e-09
1.289946021e-09
5.085275295e-10
5.15593409e-10
5.079664804e-10
4.894561544e-10
4.63342393e-10
1.705310127e-10
1.737368391e-10
1.718063065e-10
1.660828523e-10
1.576887163e-10
5.407371928e-11
5.535793402e-11
5.49471372e-11
5.328195136e-11
5.074171312e-11
1.611505035e-11
1.658120381e-11
1.652897371e-11
1.609819069e-11
1.538919727e-11
4.320603218e-12
4.478436276e-12
4.490315195e-12
4.391551601e-12
4.211431225e-12
1.115375602e-12
1.164938047e-12
1.173911309e-12
1.152466231e-12
1.108957822e-12
2.597486287e-13
2.742157767e-13
2.783775138e-13
2.748370557e-13
2.659112934e-13
5.28227219e-14
5.700500669e-14
5.854456099e-14
5.829375751e-14
5.681108533e-14
9.398306202e-15
1.027645155e-14
1.065699121e-14
1.062524173e-14
1.040462498e-14
1.137594778e-15
1.273795059e-15
1.336518887e-15
1.343953298e-15
1.316073483e-15
2.270479433e-17
3.551771482e-17
4.207212009e-17
4.311826972e-17
4.073808466e-17
0
0
0
0
0
0
0
0
0
0
0
0
0
0
9.27068199e-20
2.378570472e-18
2.465145984e-18
2.441619488e-18
2.121100591e-18
1.589569876e-18
2.14749008e-17
1.816616804e-17
1.412602748e-17
9.545001435e-18
3.866354189e-18
7.876199622e-17
5.061708078e-17
1.148196444e-17
0
0
8.457147527e-17
5.096791704e-17
2.218642956e-17
1.270404816e-18
0
1.449006262e-16
1.125074041e-16
8.597778829e-17
6.787067142e-17
5.974834579e-17
2.458900417e-16
2.402475347e-16
2.396380996e-16
2.546653684e-16
2.578394534e-16
4.517090403e-16
4.459825323e-16
4.40460575e-16
4.330378268e-16
4.230482815e-16
5.250661495e-16
5.150116374e-16
5.032771194e-16
4.889052612e-16
4.711655823e-16
4.580382404e-16
4.519179985e-16
4.428692343e-16
4.311523177e-16
4.173488276e-16
3.740476818e-16
3.749178619e-16
3.748210505e-16
3.736345571e-16
3.708219273e-16
1.349207779e-10
9.320135243e-12
4.25366455e-13
0
0
0
0
0
0
0
0
0
0
0
0
0
0
0
0
0
0
0
0
0
0
0
0
0
0
0
0
0
0
0
0
0
0
0
0
0
0
0
0
0
0
0
0
0
0
0
0
0
0
0
0
0
0
0
0
0
9.460551038e-09
8.074864515e-10
5.625841323e-11
6.306196733e-12
1.221416462e-12
2.259450527e-13
0
0
0
0
0
0
0
0
0
0
0
0
0
0
0
0
0
0
0
0
0
0
0
0
0
0
0
0
0
0
0
0
0
0
0
0
0
0
0
0
0
0
0
0
0
0
0
0
0
0
0
0
0
0
2.912519627e-08
5.207322456e-09
5.185487049e-10
6.495451073e-11
1.441360179e-11
4.749166486e-12
1.806981741e-12
6.222417832e-13
1.140647652e-13
0
0
0
0
0
0
0
0
0
0
0
0
0
0
0
0
0
0
0
0
0
0
0
0
0
0
0
0
0
0
0
0
0
0
0
0
0
0
0
0
0
0
0
0
0
0
0
0
0
0
0
5.466116695e-07
1.18619202e-07
1.289809173e-08
1.035120221e-09
1.621061565e-10
4.652252586e-11
1.822274228e-11
7.747447277e-12
3.137476288e-12
1.082280342e-12
2.366047971e-13
0
0
0
0
0
0
0
0
0
0
0
0
0
0
0
0
0
0
0
0
0
0
0
0
0
0
0
0
0
0
0
0
0
0
0
0
0
0
0
0
0
0
0
0
0
0
0
0
0
1.700698331e-06
5.015777404e-07
1.206121644e-07
1.392553728e-08
1.648464227e-09
3.586839542e-10
1.195474505e-10
4.76087309e-11
1.959452032e-11
7.708408996e-12
2.692928095e-12
7.246446144e-13
7.269063363e-14
0
0
0
0
0
0
0
0
0
0
0
0
0
0
0
0
0
0
0
0
0
0
0
0
0
0
0
0
0
0
0
0
0
0
0
0
0
0
0
0
0
0
0
0
0
0
0
1.640579447e-06
5.658637157e-07
2.619870076e-07
7.657937322e-08
1.007044649e-08
1.690643238e-09
4.687155014e-10
1.705516586e-10
6.770538867e-11
2.665773499e-11
9.832684977e-12
3.192003034e-12
7.886016246e-13
6.97456887e-14
0
0
0
0
0
0
0
0
0
0
0
0
0
0
0
0
0
0
0
0
0
0
0
0
0
0
0
0
0
0
0
0
0
0
0
0
0
0
0
0
0
0
0
0
0
0
1.965736537e-06
4.304886387e-07
3.087621326e-07
2.00193014e-07
5.327441711e-08
7.459889079e-09
1.573188617e-09
4.969470704e-10
1.862412592e-10
7.176975395e-11
2.660535456e-11
9.057879144e-12
2.651223275e-12
5.545494218e-13
1.608362761e-14
0
0
0
0
0
0
0
0
0
0
0
0
0
0
0
0
0
0
0
0
0
0
0
0
0
0
0
0
0
0
0
0
0
0
0
0
0
0
0
0
0
0
0
0
0
4.903143906e-06
4.664803097e-07
3.182759829e-07
3.170202292e-07
1.885292538e-07
3.574287552e-08
5.59248235e-09
1.416955045e-09
4.762211873e-10
1.750114385e-10
6.358794954e-11
2.170497829e-11
6.659005768e-12
1.685731399e-12
2.5808411e-13
0
0
0
0
0
0
0
0
0
0
0
0
0
0
0
0
0
0
0
0
0
0
0
0
0
0
0
0
0
0
0
0
0
0
0
0
0
0
0
0
0
0
0
0
0
2.299819764e-05
1.553885777e-06
5.11293663e-07
4.80506496e-07
4.314541562e-07
1.623706199e-07
2.307772852e-08
4.27145332e-09
1.206214367e-09
4.060034856e-10
1.406455665e-10
4.6789899e-11
1.434693035e-11
3.848688919e-12
7.821846417e-13
4.885542972e-14
0
0
0
0
0
0
0
0
0
0
0
0
0
0
0
0
0
0
0
0
0
0
0
0
0
0
0
0
0
0
0
0
0
0
0
0
0
0
0
0
0
0
0
0
4.620353923e-05
3.374230959e-06
5.944311339e-07
5.794286599e-07
6.502766269e-07
4.510055162e-07
9.375796568e-08
1.286857914e-08
2.903094361e-09
8.692550247e-10
2.825120105e-10
9.037777793e-11
2.715575988e-11
7.367308835e-12
1.659626152e-12
2.204610532e-13
0
0
0
0
0
0
0
0
0
0
0
0
0
0
0
0
0
0
0
0
0
0
0
0
0
0
0
0
0
0
0
0
0
0
0
0
0
0
0
0
0
0
0
0
6.462543011e-05
6.035498672e-06
6.126788924e-07
5.527881534e-07
8.162111931e-07
8.169638073e-07
2.824014361e-07
3.897986489e-08
6.851553313e-09
1.752617608e-09
5.197343532e-10
1.568928406e-10
4.546363222e-11
1.220215242e-11
2.865484391e-12
4.840895791e-13
6.218043536e-15
0
0
0
0
0
0
0
0
0
0
0
0
0
0
0
0
0
0
0
0
0
0
0
0
0
0
0
0
0
0
0
0
0
0
0
0
0
0
0
0
0
0
0
7.069186687e-05
7.549450916e-06
6.864932577e-07
4.473988186e-07
9.505524086e-07
1.205029721e-06
6.803915441e-07
1.159253017e-07
1.750113474e-08
3.597783662e-09
9.210878188e-10
2.531729004e-10
6.907328079e-11
1.800150011e-11
4.285326246e-12
8.132177092e-13
5.068100436e-14
0
0
0
0
0
0
0
0
0
0
0
0
0
0
0
0
0
0
0
0
0
0
0
0
0
0
0
0
0
0
0
0
0
0
0
0
0
0
0
0
0
0
0
0.000190806149
2.211919237e-05
2.046981199e-06
4.904773841e-07
1.165077973e-06
1.73282579e-06
1.3119815e-06
3.223088498e-07
4.363331877e-08
7.374069003e-09
1.555054826e-09
3.747934763e-10
9.423579169e-11
2.360343792e-11
5.64466673e-12
1.153845059e-12
1.16454376e-13
0
0
0
0
0
0
0
0
0
0
0
0
0
0
0
0
0
0
0
0
0
0
0
0
0
0
0
0
0
0
0
0
0
0
0
0
0
0
0
0
0
0
0
0.0003377738171
4.443340248e-05
4.410606474e-06
6.241251024e-07
1.415917588e-06
2.448791551e-06
2.231789872e-06
7.960438025e-07
1.078668611e-07
1.567694476e-08
2.655444471e-09
5.395179903e-10
1.216095957e-10
2.885991688e-11
6.890460991e-12
1.491907924e-12
1.9587886e-13
0
0
0
0
0
0
0
0
0
0
0
0
0
0
0
0
0
0
0
0
0
0
0
0
0
0
0
0
0
0
0
0
0
0
0
0
0
0
0
0
0
0
0
0.0004744019075
7.040795118e-05
8.673356277e-06
1.064080178e-06
1.815245682e-06
3.444957822e-06
3.358096659e-06
1.634528238e-06
2.642984879e-07
3.514127747e-08
4.559139534e-09
7.337421303e-10
1.440980956e-10
3.236809483e-11
7.775833828e-12
1.773438857e-12
2.727620981e-13
3.118860887e-16
0
0
0
0
0
0
0
0
0
0
0
0
0
0
0
0
0
0
0
0
0
0
0
0
0
0
0
0
0
0
0
0
0
0
0
0
0
0
0
0
0
0
0.0005690678691
9.700418013e-05
1.337850671e-05
1.729431201e-06
2.676338427e-06
4.99770329e-06
4.729137684e-06
2.661887018e-06
5.870107611e-07
8.057159173e-08
8.156407522e-09
9.74220028e-10
1.606345732e-10
3.440347156e-11
8.430342894e-12
2.017600951e-12
3.458171624e-13
2.264142198e-15
0
0
0
0
0
0
0
0
0
0
0
0
0
0
0
0
0
0
0
0
0
0
0
0
0
0
0
0
0
0
0
0
0
0
0
0
0
0
0
0
0
0
0.0006251870993
0.0001097240318
1.691094514e-05
2.50170565e-06
5.004443502e-06
7.552297514e-06
6.323287356e-06
3.55785877e-06
1.12228589e-06
1.730147808e-07
1.505868473e-08
1.348937959e-09
1.886260025e-10
3.906975042e-11
9.685852633e-12
2.379735509e-12
4.421092674e-13
1.039352028e-14
0
0
0
0
0
0
0
0
0
0
0
0
0
0
0
0
0
0
0
0
0
0
0
0
0
0
0
0
0
0
0
0
0
0
0
0
0
0
0
0
0
0
0.0006368783318
0.0001145944425
1.748490576e-05
5.328687876e-06
1.057613809e-05
1.111712249e-05
7.965431076e-06
4.303203838e-06
1.645405507e-06
3.539213191e-07
3.458609899e-08
2.670853931e-09
3.113749427e-10
5.672518821e-11
1.314125727e-11
3.163082652e-12
6.1796798e-13
3.596859144e-14
0
0
0
0
0
0
0
0
0
0
0
0
0
0
0
0
0
0
0
0
0
0
0
0
0
0
0
0
0
0
0
0
0
0
0
0
0
0
0
0
0
0
0.0004614926224
8.145384601e-05
1.283990673e-05
1.602752317e-05
1.88320328e-05
1.49541263e-05
9.42769799e-06
4.947150947e-06
2.117585706e-06
6.602736222e-07
1.176586677e-07
1.118535733e-08
9.787204159e-10
1.231305005e-10
2.24281735e-11
4.870060211e-12
9.651563723e-13
9.655396997e-14
0
0
0
0
0
0
0
0
0
0
0
0
0
0
0
0
0
0
0
0
0
0
0
0
0
0
0
0
0
0
0
0
0
0
0
0
0
0
0
0
0
0
0.0001922849033
3.910959498e-05
4.388252393e-05
3.790082912e-05
2.799902946e-05
1.835087744e-05
1.080044081e-05
5.686383234e-06
2.640339241e-06
1.042747979e-06
3.07421518e-07
5.259523128e-08
4.990404636e-09
4.394924294e-10
5.404151848e-11
9.252095989e-12
1.736305974e-12
2.36556669e-13
0
0
0
0
0
0
0
0
0
0
0
0
0
0
0
0
0
0
0
0
0
0
0
0
0
0
0
0
0
0
0
0
0
0
0
0
0
0
0
0
0
0
0.0002329779624
0.0001284989697
8.130753652e-05
5.299792231e-05
3.401027745e-05
2.091860127e-05
1.210547115e-05
6.511452458e-06
3.218932992e-06
1.435440395e-06
5.530826346e-07
1.605387013e-07
2.70858057e-08
2.506518415e-09
2.125454196e-10
2.464058465e-11
3.776255017e-12
5.677248391e-13
1.432178758e-14
0
0
0
0
0
0
0
0
0
0
0
0
0
0
0
0
0
0
0
0
0
0
0
0
0
0
0
0
0
0
0
0
0
0
0
0
0
0
0
0
0
0.0002155974813
0.0001392249199
9.015675804e-05
5.811741733e-05
3.67788989e-05
2.250985771e-05
1.31768455e-05
7.315774697e-06
3.819465065e-06
1.850964126e-06
8.135425333e-07
3.094659931e-07
8.857690074e-08
1.455194206e-08
1.277458806e-09
1.017664823e-10
1.078530984e-11
1.435791944e-12
1.234516949e-13
0
0
0
0
0
0
0
0
0
0
0
0
0
0
0
0
0
0
0
0
0
0
0
0
0
0
0
0
0
0
0
0
0
0
0
0
0
0
0
0
0
0.0001835395789
0.0001277504857
8.663036894e-05
5.737269083e-05
3.698911385e-05
2.307789607e-05
1.385947022e-05
7.971691543e-06
4.364874883e-06
2.253690343e-06
1.079839289e-06
4.672711033e-07
1.738816954e-07
4.824895101e-08
7.520196768e-09
6.073620512e-10
4.417988746e-11
4.276129548e-12
4.316124457e-13
4.433100689e-16
0
0
0
0
0
0
0
0
0
0
0
0
0
0
0
0
0
0
0
0
0
0
0
0
0
0
0
0
0
0
0
0
0
0
0
0
0
0
0
0
0.0001523975388
0.0001109220732
7.800736111e-05
5.319271796e-05
3.519806838e-05
2.254701409e-05
1.394337295e-05
8.30024237e-06
4.735329947e-06
2.570466209e-06
1.312079247e-06
6.180660581e-07
2.607039839e-07
9.353831968e-08
2.465942997e-08
3.554396844e-09
2.55878165e-10
1.716078549e-11
1.42504856e-12
5.917148988e-14
0
0
0
0
0
0
0
0
0
0
0
0
0
0
0
0
0
0
0
0
0
0
0
0
0
0
0
0
0
0
0
0
0
0
0
0
0
0
0
0
0.0001222236262
9.136827663e-05
6.594408941e-05
4.643024814e-05
3.155774708e-05
2.077817352e-05
1.323894119e-05
8.14282432e-06
4.818537916e-06
2.727439726e-06
1.463199724e-06
7.33697086e-07
3.367183485e-07
1.368452217e-07
4.657756646e-08
1.138807796e-08
1.474981058e-09
9.558690602e-11
5.770522614e-12
3.453542303e-13
0
0
0
0
0
0
0
0
0
0
0
0
0
0
0
0
0
0
0
0
0
0
0
0
0
0
0
0
0
0
0
0
0
0
0
0
0
0
0
0
9.45371642e-05
7.274549958e-05
5.423748771e-05
3.918907657e-05
2.741119e-05
1.854083969e-05
1.212552436e-05
7.678681011e-06
4.689851247e-06
2.749124318e-06
1.535089187e-06
8.076894673e-07
3.942017835e-07
1.743648835e-07
6.738791577e-08
2.138830451e-08
4.723449384e-09
5.308734426e-10
3.024618615e-11
1.555798662e-12
1.917497863e-14
0
0
0
0
0
0
0
0
0
0
0
0
0
0
0
0
0
0
0
0
0
0
0
0
0
0
0
0
0
0
0
0
0
0
0
0
0
0
0
7.188262632e-05
5.643111379e-05
4.293819482e-05
3.170381737e-05
2.272580559e-05
1.580193259e-05
1.063523566e-05
6.919602413e-06
4.342069905e-06
2.621491006e-06
1.512854966e-06
8.270689846e-07
4.230768517e-07
1.989935893e-07
8.385405952e-08
3.037564189e-08
8.810265168e-09
1.698705923e-09
1.572155699e-10
7.53433198e-12
2.386388859e-13
0
0
0
0
0
0
0
0
0
0
0
0
0
0
0
0
0
0
0
0
0
0
0
0
0
0
0
0
0
0
0
0
0
0
0
0
0
0
0
5.324741467e-05
4.250319048e-05
3.293197351e-05
2.479537221e-05
1.815000397e-05
1.291231749e-05
8.915792713e-06
5.957411321e-06
3.840608091e-06
2.37813726e-06
1.410166609e-06
7.948832594e-07
4.216704209e-07
2.076140139e-07
9.301802005e-08
3.681872022e-08
1.227496188e-08
3.163767577e-09
5.106661556e-10
3.687558559e-11
1.345836802e-12
3.190817633e-17
0
0
0
0
0
0
0
0
0
0
0
0
0
0
0
0
0
0
0
0
0
0
0
0
0
0
0
0
0
0
0
0
0
0
0
0
0
0
3.860645224e-05
3.127542586e-05
2.462827581e-05
1.886894427e-05
1.406918677e-05
1.020519972e-05
7.192405981e-06
4.913987208e-06
3.242391757e-06
2.057891669e-06
1.24968994e-06
7.217471239e-07
3.938382698e-07
2.007432593e-07
9.407763817e-08
3.962978163e-08
1.450096341e-08
4.365299541e-09
9.896226891e-10
1.311600697e-10
7.347639561e-12
1.306172499e-13
0
0
0
0
0
0
0
0
0
0
0
0
0
0
0
0
0
0
0
0
0
0
0
0
0
0
0
0
0
0
0
0
0
0
0
0
0
0
2.747356748e-05
2.255153381e-05
1.801237658e-05
1.400856988e-05
1.060922317e-05
7.819988047e-06
5.603079148e-06
3.894714806e-06
2.618281757e-06
1.694743034e-06
1.051141106e-06
6.208885995e-07
3.463054996e-07
1.812658375e-07
8.788491735e-08
3.876176809e-08
1.515640877e-08
5.036758537e-09
1.330517756e-09
2.52926902e-10
2.57667117e-11
9.403273871e-13
0
0
0
0
0
0
0
0
0
0
0
0
0
0
0
0
0
0
0
0
0
0
0
0
0
0
0
0
0
0
0
0
0
0
0
0
0
0
1.918016932e-05
1.592438519e-05
1.287280945e-05
1.013648841e-05
7.774518718e-06
5.804341228e-06
4.212987702e-06
2.9673412e-06
2.022794557e-06
1.329656298e-06
8.384979436e-07
5.044095784e-07
2.873738152e-07
1.534530198e-07
7.631028456e-08
3.481590479e-08
1.42738784e-08
5.100728631e-09
1.495994686e-09
3.215996107e-10
4.70356261e-11
3.136135302e-12
1.084022249e-14
0
0
0
0
0
0
0
0
0
0
0
0
0
0
0
0
0
0
0
0
0
0
0
0
0
0
0
0
0
0
0
0
0
0
0
0
0
1.309206501e-05
1.097409451e-05
8.958878506e-06
7.125218687e-06
5.519801157e-06
4.16226776e-06
3.051316722e-06
2.170799864e-06
1.495107722e-06
9.937294566e-07
6.346800202e-07
3.872911278e-07
2.243024683e-07
1.22234476e-07
6.198338385e-08
2.902225252e-08
1.233626194e-08
4.641911497e-09
1.475012606e-09
3.615509954e-10
6.686200533e-11
7.355042812e-12
2.424116458e-13
0
0
0
0
0
0
0
0
0
0
0
0
0
0
0
0
0
0
0
0
0
0
0
0
0
0
0
0
0
0
0
0
0
0
0
0
0
8.697476446e-06
7.348264192e-06
6.046877079e-06
4.847553012e-06
3.784873066e-06
2.876145631e-06
2.124646443e-06
1.523144503e-06
1.057265556e-06
7.084811939e-07
4.565955209e-07
2.816101089e-07
1.651676569e-07
9.143116871e-08
4.728538958e-08
2.260460947e-08
9.882644864e-09
3.869785865e-09
1.313310142e-09
3.478002555e-10
5.411085006e-11
6.344683694e-12
2.896565205e-13
0
0
0
0
0
0
0
0
0
0
0
0
0
0
0
0
0
0
0
0
0
0
0
0
0
0
0
0
0
0
0
0
0
0
0
0
0
5.600383659e-06
4.762914689e-06
3.945072789e-06
3.182935374e-06
2.500737835e-06
1.911917272e-06
1.420793574e-06
1.024576739e-06
7.154371751e-07
4.823962694e-07
3.129801698e-07
1.945365752e-07
1.15179996e-07
6.450162656e-08
3.387741318e-08
1.649363035e-08
7.372929637e-09
2.97657548e-09
1.048565514e-09
2.932945162e-10
4.794551627e-11
0
0
0
0
0
0
0
0
0
0
0
0
0
0
0
0
0
0
0
0
0
0
0
0
0
0
0
0
0
0
0
0
0
0
0
0
0
0
0
3.485328022e-06
2.980921812e-06
2.482650789e-06
2.013652991e-06
1.590100758e-06
1.221598705e-06
9.120285957e-07
6.606653132e-07
4.633959261e-07
3.138921213e-07
2.046643814e-07
1.279324074e-07
7.628519723e-08
4.312023221e-08
2.292434809e-08
1.134760899e-08
5.166533035e-09
2.138183503e-09
7.8050431e-10
2.383198988e-10
4.142872623e-11
0
0
0
0
0
0
0
0
0
0
0
0
0
0
0
0
0
0
0
0
0
0
0
0
0
0
0
0
0
0
0
0
0
0
0
0
0
0
0
2.092522082e-06
1.798542462e-06
1.504967694e-06
1.226091317e-06
9.722259745e-07
7.498151136e-07
5.618333557e-07
4.083851684e-07
2.87400145e-07
1.953358447e-07
1.278280703e-07
8.024079884e-08
4.80955479e-08
2.737200923e-08
1.468833009e-08
7.367693977e-09
3.412600597e-09
1.439841504e-09
5.386998818e-10
1.651061776e-10
2.825519877e-11
0
0
0
0
0
0
0
0
0
0
0
0
0
0
0
0
0
0
0
0
0
0
0
0
0
0
0
0
0
0
0
0
0
0
0
0
0
0
0
1.21020131e-06
1.044710682e-06
8.777288664e-07
7.177519868e-07
5.71074484e-07
4.417853543e-07
3.31944817e-07
2.41893458e-07
1.706375785e-07
1.162520998e-07
7.627136698e-08
4.802349774e-08
2.889790026e-08
1.653572327e-08
8.941085476e-09
4.531656101e-09
2.12963144e-09
9.11951766e-10
3.469102152e-10
1.078660869e-10
2.477077763e-11
0
0
0
0
0
0
0
0
0
0
0
0
0
0
0
0
0
0
0
0
0
0
0
0
0
0
0
0
0
0
0
0
0
0
0
0
0
0
0
6.731189634e-07
5.832999729e-07
4.917732584e-07
4.033941684e-07
3.218393075e-07
2.495709856e-07
1.879077271e-07
1.371780652e-07
9.692745635e-08
6.614134202e-08
4.347160569e-08
2.743160387e-08
1.655549322e-08
9.512180298e-09
5.173598682e-09
2.644536118e-09
1.2575976e-09
5.475548071e-10
2.100598974e-10
6.509268859e-11
1.090081965e-11
8.886813734e-14
0
0
0
0
0
0
0
0
0
0
0
0
0
0
0
0
0
0
0
0
0
0
0
0
0
0
0
0
0
0
0
0
0
0
0
0
0
0
3.593354217e-07
3.124412078e-07
2.642021641e-07
2.172829274e-07
1.737369726e-07
1.349724944e-07
1.01777568e-07
7.439350795e-08
5.262156771e-08
3.594511807e-08
2.365282077e-08
1.494847548e-08
9.041515734e-09
5.211656458e-09
2.848258335e-09
1.465854273e-09
7.030391775e-10
3.092752324e-10
1.184043084e-10
3.556505554e-11
3.863575029e-12
0
0
0
0
0
0
0
0
0
0
0
0
0
0
0
0
0
0
0
0
0
0
0
0
0
0
0
0
0
0
0
0
0
0
0
0
0
0
0
1.836987306e-07
1.602105436e-07
1.358275664e-07
1.119507288e-07
8.967531834e-08
6.976648416e-08
5.266661295e-08
3.852913267e-08
2.727199986e-08
1.864119116e-08
1.227581922e-08
7.766739526e-09
4.705524175e-09
2.719240615e-09
1.491794434e-09
7.719805046e-10
3.731163286e-10
1.652213905e-10
6.236242321e-11
1.714247366e-11
2.126574084e-13
0
0
0
0
0
0
0
0
0
0
0
0
0
0
0
0
0
0
0
0
0
0
0
0
0
0
0
0
0
0
0
0
0
0
0
0
0
0
0
8.97281094e-08
7.847418609e-08
6.668632974e-08
5.506872705e-08
4.417828327e-08
3.441003715e-08
2.599812906e-08
1.903085992e-08
1.347660977e-08
9.215350081e-09
6.071680876e-09
3.844470441e-09
2.33215171e-09
1.350404909e-09
7.431492901e-10
3.863004743e-10
1.877489962e-10
8.314125461e-11
3.220585176e-11
7.347119862e-12
2.388221325e-13
0
0
0
0
0
0
0
0
0
0
0
0
0
0
0
0
0
0
0
0
0
0
0
0
0
0
0
0
0
0
0
0
0
0
0
0
0
0
0
4.179102545e-08
3.664696592e-08
3.12101086e-08
2.58180699e-08
2.074039362e-08
1.617076882e-08
1.222628584e-08
8.954027924e-09
6.342811453e-09
4.338381143e-09
2.859419481e-09
1.81155626e-09
1.099980048e-09
6.378734742e-10
3.518413498e-10
1.833803729e-10
8.919491762e-11
3.890894622e-11
1.458081754e-11
1.792972597e-12
0
0
0
0
0
0
0
0
0
0
0
0
0
0
0
0
0
0
0
0
0
0
0
0
0
0
0
0
0
0
0
0
0
0
0
0
0
0
0
0
1.852830848e-08
1.629024562e-08
1.390298066e-08
1.152040325e-08
9.266607169e-09
7.2317205e-09
5.471180983e-09
4.008621707e-09
2.840431628e-09
1.943203515e-09
1.281119494e-09
8.119783456e-10
4.93372959e-10
2.863974895e-10
1.582728491e-10
8.269537888e-11
4.033487998e-11
1.774027363e-11
6.71791411e-12
1.943111922e-12
0
0
0
0
0
0
0
0
0
0
0
0
0
0
0
0
0
0
0
0
0
0
0
0
0
0
0
0
0
0
0
0
0
0
0
0
0
0
0
0
7.809469171e-09
6.884334249e-09
5.888002038e-09
4.887220455e-09
3.936268124e-09
3.074905322e-09
2.327941651e-09
1.706372617e-09
1.209403756e-09
8.274771009e-10
5.456545903e-10
3.459289035e-10
2.10284932e-10
1.22167217e-10