/*--------------------------------*- C++ -*----------------------------------*\
  =========                 |
  \\      /  F ield         | OpenFOAM: The Open Source CFD Toolbox
   \\    /   O peration     | Website:  https://openfoam.org
    \\  /    A nd           | Version:  10
     \\/     M anipulation  |
\*---------------------------------------------------------------------------*/
FoamFile
{
    format      ascii;
    class       volScalarField;
    location    "0.02498436188";
    object      C2H3_0;
}
// * * * * * * * * * * * * * * * * * * * * * * * * * * * * * * * * * * * * * //

dimensions      [0 0 0 0 0 0 0];

internalField   nonuniform List<scalar> 
5170
(
0
0
0
0
0
0
0
0
0
0
0
0
0
0
0
0
0
0
0
0
0
0
0
0
0
0
0
0
0
0
0
0
0
0
0
0
0
0
0
0
0
0
0
0
0
0
0
0
0
0
0
0
0
0
0
0
0
0
0
0
0
0
0
0
0
0
0
0
0
0
0
0
0
0
0
0
0
0
0
0
0
0
0
0
0
0
0
0
0
0
0
0
0
0
0
0
0
0
0
0
2.983426222e-22
0
0
0
0
4.875707571e-22
0
0
0
0
1.029248186e-22
4.525144584e-23
0
0
1.878230232e-24
4.556663205e-23
3.118057786e-22
3.24887307e-24
0
0
0
2.97805858e-20
0
4.851910046e-21
8.221326489e-20
1.958377222e-17
4.34782695e-19
0
2.414817731e-18
9.558142657e-17
4.953227613e-17
1.41671231e-17
1.490921678e-17
3.005497145e-15
6.536236824e-14
5.237304794e-14
9.194497122e-16
2.627626918e-15
4.949223247e-14
4.525659905e-14
3.583448239e-13
1.265704088e-13
2.047479064e-14
1.436851817e-13
0
0
2.00901403e-12
0
0
0
2.241529289e-14
6.210505351e-13
0
0
0
9.870356041e-15
0
0
0
0
1.196174353e-14
6.293561764e-16
0
7.844085048e-15
2.856508538e-13
0
0
3.679919082e-15
8.189557614e-14
7.285959091e-13
2.942783667e-13
0
5.004163091e-15
3.378576009e-13
5.431329536e-13
3.84891001e-13
2.722201716e-13
2.732063019e-13
4.683792327e-13
6.921361697e-13
3.542749189e-13
6.168165249e-13
6.170561173e-13
4.945899472e-13
1.152112796e-12
5.222894551e-13
4.942153461e-13
5.108274352e-13
6.259416657e-13
7.895340237e-13
1.29833535e-12
6.658458764e-13
5.025979072e-13
1.072683891e-12
7.2089104e-13
2.382565613e-11
2.549965982e-11
8.24523199e-12
1.631634715e-12
8.584377969e-14
0
0
0
0
5.645316446e-11
0
2.961441448e-14
6.693895295e-12
9.798017814e-11
3.134644601e-09
0
3.16833523e-13
8.458544868e-12
1.36907317e-10
2.762847128e-09
0
6.28253416e-13
9.225402964e-12
1.314105034e-10
1.896895365e-09
0
1.459493155e-12
1.612329495e-11
2.141528342e-10
3.00877402e-09
0
2.879703108e-12
2.23762776e-11
3.831380555e-10
4.551646154e-09
3.508026275e-13
5.533509907e-12
3.364347071e-11
4.966634813e-10
4.804064347e-09
5.74540481e-13
5.481891828e-12
4.112543393e-11
4.918214815e-10
3.918837304e-09
1.201249219e-13
1.125063301e-13
4.703015829e-11
4.731870895e-10
3.359665728e-09
3.191862546e-13
3.522727944e-12
5.785269432e-11
5.105929329e-10
3.370713034e-09
1.814607013e-12
1.021151551e-11
8.119310316e-11
6.400104706e-10
3.966908703e-09
1.711872486e-12
1.302837655e-11
1.12857331e-10
7.864573029e-10
4.445298185e-09
0
1.839892715e-11
1.377308307e-10
8.31225544e-10
4.180485759e-09
3.980505304e-12
2.599636716e-11
1.680115002e-10
9.267250638e-10
4.426403723e-09
8.56076079e-12
3.76924836e-11
2.089829984e-10
1.049989058e-09
4.683865542e-09
1.412908356e-11
5.058635401e-11
2.443707725e-10
1.115264603e-09
4.622590789e-09
2.57738908e-11
8.11587221e-11
3.53227103e-10
1.351595944e-09
5.338789505e-09
4.835683013e-11
1.288006996e-10
4.96859583e-10
1.558096964e-09
5.761267175e-09
3.22456618e-11
1.15332472e-10
6.40284613e-10
2.113975834e-09
8.092007656e-09
1.25356921e-10
2.701046408e-10
8.379587874e-10
2.669712386e-09
8.443494293e-09
1.859111602e-10
3.198126352e-10
7.558470771e-10
1.916330574e-09
4.812243399e-09
2.15282697e-10
2.94438034e-10
5.125718334e-10
9.801284119e-10
1.909935161e-09
1.549862931e-10
1.834028833e-10
2.534645773e-10
3.809915992e-10
5.924934124e-10
6.9943548e-11
7.726663029e-11
9.329776486e-11
1.157131009e-10
1.496534804e-10
2.150399892e-11
2.243915401e-11
2.424909669e-11
2.737891464e-11
3.083866324e-11
4.632516587e-12
4.760898698e-12
4.974664895e-12
5.111575881e-12
5.214641242e-12
9.521562378e-13
9.592536161e-13
9.565908632e-13
9.315346078e-13
9.001679306e-13
1.907450335e-13
1.890817031e-13
1.83740574e-13
1.741289916e-13
1.613557314e-13
3.889912177e-14
3.844567087e-14
3.703924625e-14
3.468144961e-14
3.140759726e-14
8.474018455e-15
8.422727201e-15
8.324518396e-15
7.822905365e-15
7.032440209e-15
9.847798439e-16
1.012939911e-15
1.097870017e-15
1.422077945e-15
1.525952185e-15
4.662620636e-16
4.628046398e-16
4.565486723e-16
4.503915712e-16
4.356027058e-16
1.603588755e-16
1.585812024e-16
1.53307486e-16
1.481376316e-16
1.417958469e-16
6.725976036e-17
6.689124121e-17
6.602663424e-17
6.485576288e-17
6.353899792e-17
3.861214511e-17
3.847578529e-17
3.813159241e-17
3.779258056e-17
3.744435307e-17
2.548448313e-17
2.555836969e-17
2.572137529e-17
2.599571855e-17
2.642078194e-17
1.760936145e-17
1.769239306e-17
1.787209208e-17
1.812145962e-17
1.844547334e-17
1.011151027e-17
1.018361667e-17
1.033641475e-17
1.05719022e-17
1.088206647e-17
5.133085368e-18
5.156710581e-18
5.199531334e-18
5.253567096e-18
5.339326347e-18
2.16623167e-18
2.183536062e-18
2.189989553e-18
2.219511427e-18
2.037789233e-18
6.61396394e-20
5.170507085e-20
2.613139997e-20
2.862491369e-20
3.585074099e-20
0
0
0
0
0
0
6.026420648e-20
8.146951637e-20
7.280757487e-20
7.56429057e-20
0
0
0
0
0
8.812151459e-21
1.040158312e-20
0
0
0
0
0
0
0
0
0
0
0
0
0
5.041553839e-20
4.42747895e-20
1.189168036e-20
8.382773584e-21
9.27390059e-21
0
0
0
0
0
0
0
0
0
0
0
0
0
0
0
0
0
0
0
0
0
0
0
0
0
0
0
0
0
0
4.041686517e-22
4.029447561e-22
4.155118735e-22
4.530752359e-22
5.397626374e-22
1.189625692e-21
1.19059269e-21
1.197036353e-21
1.198560096e-21
1.177441029e-21
2.132098738e-21
2.119841708e-21
2.099341749e-21
2.088621576e-21
2.118330866e-21
2.010479688e-21
2.003764742e-21
1.994352251e-21
1.999658841e-21
2.048636554e-21
1.96459928e-21
1.957445905e-21
1.94611632e-21
1.945737796e-21
1.981200041e-21
1.833176008e-21
1.763902846e-21
1.627863055e-21
1.475697179e-21
1.398473031e-21
4.539392431e-21
4.559012722e-21
4.609202284e-21
4.696404878e-21
4.818108562e-21
6.896399808e-21
6.8918178e-21
6.886710518e-21
6.884494988e-21
6.886763593e-21
6.098173827e-21
6.143443762e-21
6.245529626e-21
6.404900571e-21
6.62208734e-21
1.390413393e-20
1.388701767e-20
1.385987481e-20
1.38333488e-20
1.380072718e-20
1.585848869e-20
1.579546571e-20
1.566081865e-20
1.545549344e-20
1.515774829e-20
1.299482801e-20
1.280939094e-20
1.240596844e-20
1.179466132e-20
1.096646112e-20
6.21284085e-21
6.354621576e-21
6.653481819e-21
7.074265498e-21
7.563943772e-21
1.895000716e-20
1.894910515e-20
1.895831247e-20
1.902083847e-20
1.924633563e-20
2.15166112e-20
2.139553494e-20
2.110317778e-20
2.061305066e-20
1.989680241e-20
8.736064253e-21
8.728904913e-21
8.645635467e-21
8.300515766e-21
7.293720507e-21
4.701761117e-10
3.609699373e-08
2.03773541e-08
1.084303674e-08
1.991880216e-08
2.62519658e-08
2.368018774e-08
1.664015565e-08
1.35523605e-08
1.318586579e-08
1.496299303e-08
1.56443979e-08
1.341171495e-08
1.392170811e-08
1.388248598e-08
1.310275751e-08
1.374387319e-08
1.704760737e-08
2.2724097e-08
2.002538932e-08
9.379898368e-09
3.085540977e-09
8.171443972e-10
1.816617566e-10
3.400300669e-11
5.355383796e-12
8.814386445e-13
1.533952887e-13
2.854610225e-14
6.368984227e-15
1.469744072e-15
4.193233705e-16
1.386465568e-16
6.293239405e-17
3.7286845e-17
2.686124804e-17
1.873052369e-17
1.117112111e-17
5.421051425e-18
1.797036649e-18
1.361409511e-20
0
3.840077292e-20
0
0
0
0
1.144510751e-20
0
0
0
0
0
0
6.235185492e-22
1.280366473e-21
2.168459459e-21
2.110163396e-21
2.024032079e-21
1.420930556e-21
4.892617435e-21
6.871585511e-21
6.579270871e-21
1.372739912e-20
1.484618489e-20
1.02462402e-20
7.883748499e-21
1.949533289e-20
1.938312094e-20
5.956794903e-21
1.742440321e-09
8.587479953e-09
5.249659052e-10
6.360483228e-11
4.667394868e-12
2.039674325e-07
3.411117248e-06
1.957096348e-07
5.825020301e-09
2.256983298e-10
8.379823063e-08
7.220665262e-07
8.723386991e-08
5.135776527e-09
4.291221383e-10
4.040117917e-08
3.306141824e-07
1.811214543e-06
1.391121989e-07
7.088916258e-09
9.06392755e-08
1.093817061e-06
1.113579935e-05
1.097777795e-06
7.625131357e-08
1.055086294e-07
1.068675391e-06
8.899461474e-06
1.154819843e-06
1.067241747e-07
8.635326945e-08
7.40458413e-07
5.162945003e-06
8.242393271e-07
9.644044841e-08
5.542967355e-08
4.057818147e-07
2.459632515e-06
1.252572427e-06
1.658965446e-07
4.418723129e-08
3.21332743e-07
2.03861066e-06
6.78486604e-06
9.561724514e-07
4.236183607e-08
3.160915793e-07
2.038637583e-06
9.890507542e-06
1.611924759e-06
4.704158217e-08
3.20407958e-07
1.98507313e-06
9.922457534e-06
1.810322492e-06
4.689158686e-08
2.973628937e-07
1.727957725e-06
8.26803882e-06
1.706120622e-06
3.770195874e-08
2.547427713e-07
1.313141163e-06
5.853928091e-06
2.630499378e-06
3.896287019e-08
2.336488229e-07
1.119428844e-06
4.966418289e-06
6.333363404e-06
3.64492073e-08
2.021810545e-07
1.00149565e-06
4.354995602e-06
7.726174053e-06
3.424626512e-08
1.815382791e-07
9.323395103e-07
3.912808503e-06
8.459144467e-06
3.450898703e-08
1.735162404e-07
8.754081765e-07
3.593118177e-06
8.574177396e-06
4.242197032e-08
2.111723518e-07
9.599336134e-07
3.829144298e-06
8.656667631e-06
5.60383384e-08
2.703898437e-07
1.186291188e-06
4.533567999e-06
7.610295689e-06
4.703921288e-08
2.067903203e-07
8.490957278e-07
3.2788694e-06
9.894972854e-06
1.900531965e-08
6.075535951e-08
1.754700583e-07
4.498383806e-07
8.410908138e-07
5.366857783e-09
1.261565591e-08
2.652968277e-08
4.877833315e-08
6.647077457e-08
1.236634139e-09
2.231450968e-09
3.591179553e-09
5.033776597e-09
5.428439627e-09
2.424587381e-10
3.486243814e-10
4.498278956e-10
5.113177999e-10
4.672813001e-10
4.155075322e-11
4.932155052e-11
5.341850431e-11
5.16163592e-11
4.176478479e-11
5.873371822e-12
6.045926268e-12
5.591948175e-12
4.61544136e-12
3.308969168e-12
9.024622583e-13
8.419340046e-13
6.950524463e-13
5.23517299e-13
3.486369163e-13
1.493535664e-13
1.292638733e-13
1.038235774e-13
6.975820011e-14
4.571963227e-14
2.331622892e-14
2.318013018e-14
1.888401343e-14
1.12273194e-14
2.416640042e-15
5.498233466e-15
2.750270867e-15
3.423580643e-15
2.58648843e-15
1.411874033e-15
1.380169761e-15
1.056260244e-15
7.579151061e-16
6.645528293e-16
4.758899018e-16
4.043778118e-16
3.354573137e-16
2.540716492e-16
2.054235093e-16
1.60355049e-16
1.348949439e-16
1.19817211e-16
1.066855923e-16
9.120590687e-17
7.631830584e-17
6.290329665e-17
5.8347081e-17
5.149544013e-17
4.773708596e-17
4.800661242e-17
3.725268815e-17
3.678453998e-17
3.632651891e-17
3.76096319e-17
3.790628714e-17
2.766656499e-17
2.851721912e-17
2.913425204e-17
2.99014287e-17
3.137650591e-17
1.927024292e-17
2.001880145e-17
2.058878702e-17
2.133443909e-17
2.1074759e-17
1.169815492e-17
1.219317614e-17
1.166631178e-17
1.132026068e-17
1.11211253e-17
5.637878596e-18
5.324604675e-18
4.457275381e-18
3.993518598e-18
3.941117646e-18
1.428015715e-18
8.725964919e-19
4.649280268e-19
3.003467012e-19
1.141593432e-18
0
0
0
7.028868893e-20
0
0
0
7.031649878e-20
0
1.9424105e-21
0
0
0
0
0
0
0
0
0
0
0
0
0
0
0
0
0
0
0
1.602104612e-20
0
0
6.212131149e-20
8.652393846e-20
2.454193954e-20
1.52173509e-20
1.558326524e-20
2.205649917e-20
2.641026161e-21
0
0
0
0
0
0
0
0
0
0
0
0
0
0
0
0
0
0
0
0
0
0
0
0
0
0
0
5.537244784e-23
4.002277929e-22
8.199321121e-22
1.092606818e-21
7.11313895e-22
8.365574485e-22
1.2532936e-21
1.546522601e-21
2.170751282e-21
1.273466987e-21
1.885748267e-21
2.314382553e-21
2.484004023e-21
2.572408099e-21
2.25081389e-21
2.405546447e-21
2.511160513e-21
2.56598356e-21
2.597491291e-21
2.216961872e-21
2.378837294e-21
2.464157691e-21
2.461626757e-21
2.343413929e-21
2.092604947e-21
2.147473802e-21
2.044820721e-21
1.736221294e-21
1.278026277e-21
1.547554002e-21
1.928363776e-21
2.319857258e-21
2.714185142e-21
2.977941039e-21
4.948093195e-21
5.081245958e-21
5.145583218e-21
5.217902117e-21
5.296916224e-21
6.785272317e-21
6.798847077e-21
6.99935196e-21
7.382035744e-21
8.114332847e-21
6.504140796e-21
8.605810621e-21
9.71450446e-21
1.054902412e-20
1.107620316e-20
1.355749616e-20
1.336056734e-20
1.312115215e-20
1.270051482e-20
1.198960636e-20
1.431237107e-20
1.328953773e-20
1.205642585e-20
1.055263205e-20
8.80079452e-21
9.137685459e-21
7.274680536e-21
5.631432205e-21
4.518505094e-21
4.135237588e-21
8.383654859e-21
9.068820797e-21
9.70674949e-21
1.023260373e-20
1.070540545e-20
1.979194453e-20
1.949141307e-20
1.927475245e-20
1.819404548e-20
1.656956752e-20
1.886845365e-20
1.727435863e-20
1.468111545e-20
1.120719514e-20
7.827807214e-21
3.978849288e-21
2.458345856e-21
0
0
0
1.116206033e-14
0
0
0
0
0
0
0
0
0
0
0
0
0
0
0
0
0
0
0
0
0
0
0
0
0
0
0
0
0
0
0
0
0
0
0
0
0
0
0
0
0
0
0
0
0
0
0
0
0
0
0
0
0
0
0
0
0
0
0
7.895886648e-13
1.316067903e-14
0
0
0
0
0
0
0
0
0
0
0
0
0
0
0
0
0
0
0
0
0
0
0
0
0
0
0
0
0
0
0
0
0
0
0
0
0
0
0
0
0
0
0
0
0
0
0
0
0
0
0
0
0
0
0
0
0
0
2.468223779e-12
0
0
0
0
0
0
0
0
0
0
0
0
0
0
0
0
0
0
0
0
0
0
0
0
0
0
0
0
0
0
0
0
0
0
0
0
0
0
0
0
0
0
0
0
0
0
0
0
0
0
0
0
0
0
0
0
0
0
0
1.076564756e-10
3.89403732e-13
2.930682133e-14
0
0
0
0
0
0
0
0
0
0
0
0
0
0
0
0
0
0
0
0
0
0
0
0
0
0
0
0
0
0
0
0
0
0
0
0
0
0
0
0
0
0
0
0
0
0
0
0
0
0
0
0
0
0
0
0
0
2.180040636e-09
1.757994654e-11
1.301728293e-13
4.285116323e-14
0
0
0
0
0
0
0
0
0
0
0
0
0
0
0
0
0
0
0
0
0
0
0
0
0
0
0
0
0
0
0
0
0
0
0
0
0
0
0
0
0
0
0
0
0
0
0
0
0
0
0
0
0
0
0
0
5.532078199e-09
1.107560109e-10
7.097645826e-13
1.830928425e-13
1.229878179e-14
0
0
0
0
0
0
0
0
0
0
0
0
0
0
0
0
0
0
0
0
0
0
0
0
0
0
0
0
0
0
0
0
0
0
0
0
0
0
0
0
0
0
0
0
0
0
0
0
0
0
0
0
0
0
0
6.675294031e-09
2.692766658e-10
4.499676339e-12
2.854605474e-14
1.626582336e-14
0
0
0
0
0
0
0
0
0
0
0
0
0
0
0
0
0
0
0
0
0
0
0
0
0
0
0
0
0
0
0
0
0
0
0
0
0
0
0
0
0
0
0
0
0
0
0
0
0
0
0
0
0
0
0
1.269462665e-08
7.69853878e-10
2.691162483e-11
4.001483906e-13
0
0
0
0
0
0
0
0
0
0
0
0
0
0
0
0
0
0
0
0
0
0
0
0
0
0
0
0
0
0
0
0
0
0
0
0
0
0
0
0
0
0
0
0
0
0
0
0
0
0
0
0
0
0
0
0
8.598942815e-08
5.459373655e-09
2.540355968e-10
7.22035612e-12
9.504460098e-14
2.016894907e-14
0
0
0
0
0
0
0
0
0
0
0
0
0
0
0
0
0
0
0
0
0
0
0
0
0
0
0
0
0
0
0
0
0
0
0
0
0
0
0
0
0
0
0
0
0
0
0
0
0
0
0
0
0
0
1.825484051e-07
1.332468917e-08
8.196899294e-10
3.691246407e-11
1.000667402e-12
1.205461486e-14
9.91574403e-15
0
0
0
0
0
0
0
0
0
0
0
0
0
0
0
0
0
0
0
0
0
0
0
0
0
0
0
0
0
0
0
0
0
0
0
0
0
0
0
0
0
0
0
0
0
0
0
0
0
0
0
0
0
2.564001808e-07
2.548070633e-08
1.981913446e-09
1.404851453e-10
5.980515305e-12
1.2259025e-13
2.99113802e-14
8.550251832e-16
0
0
0
0
0
0
0
0
0
0
0
0
0
0
0
0
0
0
0
0
0
0
0
0
0
0
0
0
0
0
0
0
0
0
0
0
0
0
0
0
0
0
0
0
0
0
0
0
0
0
0
0
2.348280351e-07
2.482456783e-08
2.330476095e-09
3.452076894e-10
2.247361179e-11
7.065455169e-13
8.901369546e-15
5.544783707e-15
0
0
0
0
0
0
0
0
0
0
0
0
0
0
0
0
0
0
0
0
0
0
0
0
0
0
0
0
0
0
0
0
0
0
0
0
0
0
0
0
0
0
0
0
0
0
0
0
0
0
0
0
3.970641334e-07
4.861907285e-08
4.632354901e-09
8.606391757e-10
7.695091967e-11
3.191908526e-12
5.758253498e-14
1.519250075e-14
0
0
0
0
0
0
0
0
0
0
0
0
0
0
0
0
0
0
0
0
0
0
0
0
0
0
0
0
0
0
0
0
0
0
0
0
0
0
0
0
0
0
0
0
0
0
0
0
0
0
0
0
9.946949994e-07
1.344584394e-07
1.103210676e-08
1.645661224e-09
2.212117068e-10
1.160910669e-11
2.90698046e-13
5.228400142e-14
1.759544221e-15
0
0
0
0
0
0
0
0
0
0
0
0
0
0
0
0
0
0
0
0
0
0
0
0
0
0
0
0
0
0
0
0
0
0
0
0
0
0
0
0
0
0
0
0
0
0
0
0
0
0
0
1.357698778e-06
2.168510518e-07
2.606208949e-08
3.375657693e-09
5.867156883e-10
3.377162756e-11
1.03865726e-12
2.007953071e-14
8.520475797e-15
0
0
0
0
0
0
0
0
0
0
0
0
0
0
0
0
0
0
0
0
0
0
0
0
0
0
0
0
0
0
0
0
0
0
0
0
0
0
0
0
0
0
0
0
0
0
0
0
0
0
0
1.631628029e-06
2.674854484e-07
3.747770594e-08
4.902956143e-09
9.639619275e-10
5.76499106e-11
2.054272215e-12
3.481135492e-14
9.737262225e-15
0
0
0
0
0
0
0
0
0
0
0
0
0
0
0
0
0
0
0
0
0
0
0
0
0
0
0
0
0
0
0
0
0
0
0
0
0
0
0
0
0
0
0
0
0
0
0
0
0
0
0
1.788501461e-06
3.134065752e-07
4.939071201e-08
6.994674582e-09
9.468921934e-10
5.559594174e-11
2.219708117e-12
8.498608031e-14
8.526901186e-15
0
0
0
0
0
0
0
0
0
0
0
0
0
0
0
0
0
0
0
0
0
0
0
0
0
0
0
0
0
0
0
0
0
0
0
0
0
0
0
0
0
0
0
0
0
0
0
0
0
0
0
1.858339061e-06
3.328250533e-07
5.020510923e-08
1.492423925e-08
1.10558604e-09
5.637867905e-11
2.305974649e-12
7.671664153e-14
2.715060496e-15
0
0
0
0
0
0
0
0
0
0
0
0
0
0
0
0
0
0
0
0
0
0
0
0
0
0
0
0
0
0
0
0
0
0
0
0
0
0
0
0
0
0
0
0
0
0
0
0
0
0
0
1.495745443e-06
2.847158249e-07
3.470048908e-08
3.984232241e-09
2.891847526e-10
1.66651701e-11
7.934834257e-13
1.053661615e-13
9.099144627e-15
0
0
0
0
0
0
0
0
0
0
0
0
0
0
0
0
0
0
0
0
0
0
0
0
0
0
0
0
0
0
0
0
0
0
0
0
0
0
0
0
0
0
0
0
0
0
0
0
0
0
0
1.708337284e-06
5.147705383e-07
5.057457135e-08
3.663609319e-09
2.298796711e-10
1.284845183e-11
6.24706513e-13
5.941806167e-14
8.113253466e-15
0
0
0
0
0
0
0
0
0
0
0
0
0
0
0
0
0
0
0
0
0
0
0
0
0
0
0
0
0
0
0
0
0
0
0
0
0
0
0
0
0
0
0
0
0
0
0
0
0
0
0
2.492437944e-07
5.721530558e-08
7.548122507e-09
7.592220321e-10
6.323492768e-11
4.419701854e-12
2.941022554e-13
2.157849896e-14
2.48192106e-15
0
0
0
0
0
0
0
0
0
0
0
0
0
0
0
0
0
0
0
0
0
0
0
0
0
0
0
0
0
0
0
0
0
0
0
0
0
0
0
0
0
0
0
0
0
0
0
0
0
0
0
2.522388789e-08
6.089930611e-09
1.014781969e-09
1.298765284e-10
1.320933269e-11
1.082495116e-12
3.6876228e-14
2.693699562e-15
0
0
1.87791197e-19
0
0
0
0
0
0
0
0
0
0
0
0
0
0
0
0
0
0
0
0
0
0
0
0
0
0
0
0
0
0
0
0
0
0
0
0
0
0
0
0
0
0
0
0
0
0
0
0
0
2.420126464e-09
6.664170957e-10
1.313299225e-10
1.957463001e-11
2.287660415e-12
2.57074954e-13
3.123572319e-14
1.916558309e-15
2.406159578e-17
0
0
0
0
0
0
0
0
0
0
0
0
0
0
0
0
0
0
0
0
0
0
0
0
0
0
0
0
0
0
0
0
0
0
0
0
0
0
0
0
0
0
0
0
0
0
0
0
0
0
0
2.320965503e-10
7.161267509e-11
1.579227132e-11
2.624256085e-12
3.406086875e-13
1.608978906e-14
0
3.557335043e-17
6.896598832e-17
8.570721009e-18
0
0
0
0
0
0
0
0
0
0
0
0
0
0
0
0
0
0
0
0
0
0
0
0
0
0
0
0
0
0
0
0
0
0
0
0
0
0
0
0
0
0
0
0
0
0
0
0
0
0
2.187821624e-11
7.26377569e-12
1.523778818e-12
2.744434614e-13
3.997182532e-14
5.849821472e-15
1.077887505e-15
1.769326648e-16
3.380428833e-17
0
0
0
0
4.087300546e-18
0
0
0
0
0
0
0
0
0
0
0
0
0
0
0
0
0
0
0
0
0
0
0
0
0
0
0
0
0
0
0
0
0
0
0
0
0
0
0
0
0
0
0
0
0
0
1.770610906e-12
6.287374235e-13
1.668772457e-13
4.509484677e-14
7.425152482e-15
5.713890697e-16
1.558772977e-16
0
2.801688272e-18
1.417819048e-17
0
0
0
0
0
0
0
0
0
0
0
0
0
0
0
0
0
0
0
0
0
0
0
0
0
0
0
0
0
0
0
0
0
0
0
0
0
0
0
0
0
0
0
0
0
0
0
0
0
0
1.822162387e-13
6.911523581e-14
2.148010243e-14
0
2.474751154e-16
0
0
0
0
1.502091198e-17
1.836753996e-17
0
0
0
0
0
0
0
0
0
0
0
0
0
0
0
0
0
0
0
0
0
0
0
0
0
0
0
0
0
0
0
0
0
0
0
0
0
0
0
0
0
0
0
0
0
0
0
0
0
2.942673954e-14
1.164655561e-14
2.176420531e-15
7.37739243e-16
4.379790932e-16
1.455156638e-16
7.883125262e-17
2.42848012e-17
0
1.430173725e-17
3.880711471e-18
0
0
0
0
0
0
0
0
0
0
0
0
0
0
0
0
0
0
0
0
0
0
0
0
0
0
0
0
0
0
0
0
0
0
0
0
0
0
0
0
0
0
0
0
0
0
0
0
0
3.596594431e-15
8.00381576e-16
6.357985934e-16
2.968554011e-16
2.223963248e-16
9.910218885e-17
6.514758317e-17
1.877261221e-17
0
0
0
0
0
0
0
0
0
0
0
0
0
0
0
0
0
0
0
0
0
0
0
0
0
0
0
0
0
0
0
0
0
0
0
0
0
0
0
0
0
0
0
0
0
0
0
0
0
0
0
0
9.468902595e-16
4.851823548e-16
2.512467862e-16
4.575647291e-17
6.425417346e-17
3.871167634e-17
4.00446672e-17
4.018146746e-17
0
0
0
8.740667626e-18
1.933681697e-17
0
0
0
0
0
0
0
0
0
0
0
0
0
0
0
0
0
0
0
0
0
0
0
0
0
0
0
0
0
0
0
0
0
0
0
0
0
0
0
0
0
0
0
0
0
0
0
3.240044459e-16
1.923241581e-16
9.966168251e-17
5.262065797e-17
5.146995707e-17
3.887942508e-17
3.432965703e-17
3.014985701e-17
3.302036839e-17
0
2.329029766e-17
4.204274318e-17
5.372081329e-18
0
0
0
0
0
0
0
0
0
0
0
0
0
0
0
0
0
0
0
0
0
0
0
0
0
0
0
0
0
0
0
0
0
0
0
0
0
0
0
0
0
0
0
0
0
0
0
1.067994504e-16
8.496453239e-17
5.495411313e-17
6.223695109e-17
4.592125413e-17
3.867804964e-17
3.920540779e-17
3.105733547e-17
2.988447346e-17
3.913769541e-17
2.614748191e-17
2.15492307e-17
1.220575616e-17
0
0
0
0
0
0
0
0
0
0
0
0
0
0
0
0
0
0
0
0
0
0
0
0
0
0
0
0
0
0
0
0
0
0
0
0
0
0
0
0
0
0
0
0
0
0
0
6.479673683e-17
5.432166373e-17
4.609863751e-17
4.169900826e-17
4.056582246e-17
3.652864836e-17
3.830697678e-17
3.394670074e-17
2.578785915e-17
3.013704502e-17
1.699660785e-17
1.084353615e-17
7.320530824e-18
0
0
0
0
0
0
0
0
0
0
0
0
0
0
0
0
0
0
0
0
0
0
0
0
0
0
0
0
0
0
0
0
0
0
0
0
0
0
0
0
0
0
0
0
0
0
0
4.577341121e-17
4.210443579e-17
4.059760766e-17
3.884401025e-17
3.882569956e-17
3.64750301e-17
3.091601525e-17
2.950351884e-17
1.894614789e-17
9.855685912e-18
6.533724157e-18
5.300721329e-18
5.782392624e-18
6.223832159e-18
0
0
0
0
0
0
0
0
0
0
0
0
0
0
0
0
0
0
0
0
0
0
0
0
0
0
0
0
0
0
0
0
0
0
0
0
0
0
0
0
0
0
0
0
0
0
3.824615784e-17
3.923179043e-17
3.509387037e-17
3.058140445e-17
3.060541206e-17
2.909845699e-17
2.483216997e-17
2.421847712e-17
1.610046018e-17
6.245139403e-18
6.787883061e-18
3.963562277e-18
4.910534946e-18
5.710447882e-18
0
0
0
0
0
0
0
0
0
0
0
0
0
0
0
0
0
0
0
0
0
0
0
0
0
0
0
0
0
0
0
0
0
0
0
0
0
0
0
0
0
0
0
0
0
0
3.385210837e-17
3.341607001e-17
2.923743754e-17
2.086488149e-17
1.703385386e-17
1.532227088e-17
1.408491436e-17
1.655649231e-17
9.697166483e-18
3.281954499e-18
6.277641276e-18
3.059776235e-18
5.75312073e-18
5.852752417e-18
4.378059583e-18
0
0
0
0
0
0
0
0
0
0
0
0
0
0
0
0
0
0
0
0
0
0
0
0
0
0
0
0
0
0
0
0
0
0
0
0
0
0
0
0
0
0
0
0
0
2.209619058e-17
2.101400593e-17
1.493165228e-17
8.967998574e-18
6.717190176e-18
5.594784207e-18
5.679442629e-18
9.620648702e-18
3.816681118e-18
1.099413715e-19
2.823200737e-18
1.122077266e-18
2.434283297e-18
3.24273322e-18
4.391392497e-18
0
0
0
0
0
0
0
0
0
0
0
0
0
0
0
0
0
0
0
0
0
0
0
0
0
0
0
0
0
0
0
0
0
0
0
0
0
0
0
0
0
0
0
0
0
1.2211905e-17
1.145099599e-17
6.080124709e-18
1.563788493e-18
7.122966435e-19
5.734353757e-19
1.55266554e-18
6.408309667e-18
1.79027946e-18
0
6.299502876e-19
0
1.198284093e-18
2.502554805e-18
6.903773376e-18
6.123399981e-18
0
0
1.754685846e-19
0
0
0
0
0
0
0
0
0
0
0
0
0
0
0
0
0
0
0
0
0
0
0
0
0
0
0
0
0
0
0
0
0
0
0
0
0
0
0
0
0
5.161067102e-18
3.346200881e-18
1.088079427e-18
0
2.032695753e-19
0
0
7.743482187e-20
0
0
1.653192566e-19
0
0
1.673525931e-18
5.601078552e-18
3.183195413e-18
0
0
0
0
0
0
0
0
0
0
0
0
0
0
0
0
0
0
0
0
0
0
0
0
0
0
0
0
0
0
0
0
0
0
0
0
0
0
0
0
0
0
0
0
7.716212868e-19
2.216420349e-19
0
0
0
0
0
0
0
0
5.140569647e-20
0
0
1.92657168e-19
3.871197114e-20
0
0
0
0
0
0
0
0
0
0
0
0
0
0
0
0
0
0
0
0
0
0
0
0
0
0
0
0
0
0
0
0
0
0
0
0
0
0
0
0
0
0
0
0
0
0
0
0
1.343134444e-19
0
0
0
0
0
0
4.198987232e-20
0
0
1.976315149e-19
0
8.75212148e-19
3.719944035e-18
0
0
4.265325694e-18
0
0
0
0
0
0
0
0
0
0
0
0
0
0
0
0
0
0
0
0
0
0
0
0
0
0
0
0
0
0
0
0
0
0
0
0
0
0
0
0
0
0
0
0
0
0
0
0
0
0
3.885171016e-20
0
0
1.949972343e-19
0
1.425622594e-18
3.294461146e-18
0
0
0
0
0
0
0
0
0
0
0
0
0
0
0
0
0
0
0
0
0
0
0
0
0
0
0
0
0
0
0
0
0
0
0
0
0
0
0
0
0
0
0
0
0
2.602991373e-20
0
0
0
2.901356925e-19
0
0
0
0
0
0
1.899497587e-19
0
2.110626913e-19
0
0
0
0
2.306517747e-18
2.177046138e-18
0
0
0
0
0
0
0
0
0
0
0
0
0
0
0
0
0
0
0
0
0
0
0
0
0
0
0
0
0
0
0
0
0
0
0
0
0
0
0
2.494623959e-20
6.536493187e-21
0
0
0
0
0
0
0
0
0
0
6.34796903e-20
0
0
0
3.928168802e-18
0
1.201675264e-18
5.761035159e-18
5.521226762e-18
0
0
0
0
0
0
0
0
0
0
0
0
0
0
0
0
0
0
0
0
0
0
0
0
0
0
0
0
0
0
0
0
0
0
0
0
0
0
2.720144458e-20
1.9173165e-20
0
0
0
0
0
0
0
0
0
0
0
1.833234868e-19
0
0
3.184302146e-21
5.668317019e-18
2.562933706e-17
2.657884319e-18
5.423613713e-18
5.275308427e-18
0
0
0
0
0
0
0
0
0
0
0
0
0
0
0
0
0
0
0
0
0
0
0
0
0
0
0
0
0
0
0
0
0
0
0
0
0
0
1.039746241e-20
0
0
0
0
0
0
0
0
0
0
0
0
4.696837533e-20
2.029823057e-19
0
0
1.342299843e-18
1.580746679e-18
0
0
4.459016194e-18
0
0
0
0
0
0
0
0
0
0
0
0
0
0
0
0
0
0
0
0
0
0
0
0
0
0
0
0
0
0
0
0
0
0
0
0
0
0
0
0
0
0
0
0
0
0
0
0
0
0
0
4.984325508e-20
1.983447079e-19
0
0
0
0
0
3.896779244e-20
4.314735063e-18
0
0
0
0
0
0
0
0
0
0
0
0
0
0
0
0
0
0
0
0
0
0
0
0
0
0
0
0
0
0
0
0
0
0
0
0
0
0
0
0
0
0
0
0
0
0
0
0
0
0
0
5.821698619e-20
1.978904832e-19
0
0
0
9.310644999e-20
1.35486443e-17
1.336077195e-18
3.986643471e-18
4.903481205e-18
0
0
0
0
0
0
0
0
0
0
0
0
0
0
0
0
0
0
0
0
0
0
0
0
0
0
0
0
0
0
0
0
0
0
0
0
0
0
0
0
0
0
0
0
0
0
0
0
0
0
7.175335957e-20
1.975180923e-19
0
0
0
3.245774935e-18
2.310204826e-17
5.101009174e-18
9.804788932e-19
4.719856719e-18
0
0
0
0
0
0
0
0
0
0
0
0
0
0
0
0
0
0
0
0
0
0
0
0
0
0
0
0
0
0
0
0
0
0
0
0
0
0
0
0
0
0
0
0
0
0
0
0
0
0
7.556022183e-20
1.974825311e-19
0
0
0
5.782446627e-19
7.923459141e-18
1.889932859e-18
2.924185743e-19
4.656620966e-18
2.0522191e-18
0
0
0
0
0
0
0
0
0
0
0
0
0
0
0
0
0
0
0
0
0
0
0
0
0
0
0
0
0
0
0
0
0
0
0
0
0
0
0
0
0
0
0
0
0
1.072663261e-22
0
0
0
8.444560949e-20
1.938756521e-19
0
0
0
0
0
0
1.625458622e-21
4.09218069e-18
4.95466115e-18
0
0
0
0
0
0
0
0
0
0
0
0
0
0
0
0
0
0
0
0
0
0
0
0
0
0
0
0
0
0
0
0
0
0
0
0
0
0
1.391246204e-22
0
6.076717185e-22
0
0
0
0
0
0
0
0
8.178046186e-20
2.017994595e-19
0
0
0
0
0
0
0
1.102673697e-19
4.500582107e-18
0
0
0
0
0
0
0
0
0
0
0
0
0
0
0
0
0
0
0
0
0
0
0
0
0
0
0
0
0
0
0
0
0
0
0
0
9.929140439e-22
1.158927274e-21
1.074381369e-21
1.367975762e-21
7.994256546e-22
0
0
0
0
2.774957916e-22
0
0
0
4.2914625e-20
2.378924244e-19
0
0
0
0
0
4.783171601e-18
8.729770017e-20
6.331723886e-20
4.959787456e-18
3.348698331e-18
1.234148692e-19
0
0
0
0
0
0
0
0
0
0
0
0
0
0
0
0
0
0
0
0
0
0
0
0
0
0
0
0
0
0
0
0
0
0
1.517579272e-21
2.074501126e-21
2.257225783e-21
2.275672652e-21
1.967986906e-21
1.158856288e-21
0
0
0
2.910721067e-22
1.974042291e-22
0
0
3.713089806e-20
8.246162463e-20
0
0
0
0
0
7.171083521e-19
0
9.675866434e-20
5.266267001e-18
5.542541848e-18
0
0
0
0
0
0
0
0
0
0
0
0
0
0
0
0
0
0
0
0
0
0
0
0
0
0
0
0
0
0
0
0
0
0
0
2.425721991e-21
2.551930841e-21
2.557938849e-21
2.381072094e-21
1.828327726e-21
8.35731434e-22
3.348714182e-22
1.044467492e-21
1.012378216e-21
6.87622289e-22
0
0
3.424587057e-21
3.723884227e-20
7.891890007e-20
0
0
0
0
0
0
0
0
2.215042418e-18
5.008653899e-18
0
0
0
0
0
0
0
0
0
0
0
0
0
0
0
0
0
0
0
0
0
0
0
0
0
0
0
0
0
0
0
0
0
0
0
2.627507413e-21
2.606163383e-21
2.397999725e-21
1.799002103e-21
7.667843438e-22
3.115227499e-22
9.524143508e-22
2.060850829e-21
2.18266165e-21
9.850724374e-22
8.415516121e-23
0
0
0
3.154848992e-21
8.792633326e-22
7.765005263e-22
0
0
0
0
0
0
2.10606117e-19
5.687305626e-18
6.135034588e-18
2.60037704e-18
1.666620865e-19
0
0
0
0
0
0
0
0
0
0
0
0
0
0
0
0
0
0
0
0
0
0
0
0
0
0
0
0
0
0
0
0
2.590610924e-21
2.425331346e-21
1.922243604e-21
1.066701413e-21
9.142986788e-22
1.264918809e-21
2.443561478e-21
2.898471197e-21
1.981323793e-21
0
0
0
0
0
0
0
1.068157766e-21
0
0
0
0
0
0
1.086447537e-19
5.489566054e-18
6.294784617e-18
1.37001707e-18
0
0
0
0
0
0
0
0
0
0
0
0
0
0
0
0
0
0
0
0
0
0
0
0
0
0
0
0
0
0
0
0
0
2.002709012e-21
1.365885567e-21
1.149759228e-21
1.365258632e-21
1.870340797e-21
2.938243019e-21
3.418406702e-21
3.018979198e-21
1.849957176e-21
2.449180613e-22
0
0
0
0
0
0
0
0
0
0
0
0
0
3.844939744e-22
4.087526191e-18
5.464420559e-18
0
0
0
0
0
0
0
0
0
0
0
0
0
0
0
0
0
0
0
0
0
0
0
0
0
0
0
0
0
0
0
0
0
0
9.279712886e-22
8.946259641e-22
8.416614132e-22
1.054687689e-21
1.883993944e-21
2.933261366e-21
3.32343566e-21
2.68143562e-21
1.478899419e-21
1.387907359e-21
0
0
0
0
0
0
2.938781005e-21
0
0
0
0
0
0
0
4.042688143e-19
5.406948191e-18
3.420613154e-18
6.980004624e-19
0
0
0
0
0
0
0
0
0
0
0
0
0
0
0
0
0
0
0
0
0
0
0
0
0
0
0
0
0
0
0
0
3.121795396e-21
3.288137732e-21
3.495000296e-21
4.228204931e-21
4.549746225e-21
4.289496207e-21
3.345560684e-21
2.243155702e-21
1.705039735e-21
0
0
0
0
0
0
4.552668653e-22
5.062395385e-21
0
0
0
0
0
0
0
1.723385445e-19
5.916302087e-18
6.855727445e-18
5.401196355e-18
0
0
0
0
0
0
0
0
0
0
0
0
0
0
0
0
0
0
0
0
0
0
0
0
0
0
0
0
0
0
0
0
5.527000122e-21
6.178365329e-21
6.626585881e-21
6.754074283e-21
6.193635854e-21
5.019361956e-21
3.970261272e-21
4.134009018e-21
5.230923072e-21
6.437860931e-22
2.041943511e-20
6.376127234e-20
1.524189821e-19
2.916418921e-19
4.172886047e-20
5.145198213e-20
2.829937024e-20
0
0
0
0
0
0
0
1.237484782e-19
5.654826824e-18
7.025932322e-18
6.332489269e-18
0
0
0
0
0
0
0
0
0
0
0
0
0
0
0
0
0
0
0
0
0
0
0
0
0
0
0
0
0
0
0
0
8.677871348e-21
9.064013703e-21
8.947327268e-21
8.17010339e-21
6.801977784e-21
5.435851994e-21
5.086647016e-21
5.277645301e-21
0
0
0
1.790079333e-21
6.801654221e-21
2.319895439e-20
0
2.316613139e-20
1.556756028e-20
0
0
0
0
0
0
0
1.145629185e-19
5.538185223e-18
6.875616542e-18
6.235952176e-18
0
0
0
0
0
0
0
0
0
0
0
0
0
0
0
0
0
0
0
0
0
0
0
0
0
0
0
0
0
0
0
0
1.124807048e-20
1.088530684e-20
9.929500893e-21
8.498302205e-21
7.166489439e-21
6.847283824e-21
7.256357046e-21
4.024429356e-21
0
0
0
0
0
0
9.156438375e-21
1.568629615e-20
9.779903652e-21
0
0
0
0
0
0
0
0
3.581897257e-18
6.569488087e-18
6.473646483e-18
2.565445046e-18
0
0
0
0
0
0
0
0
0
0
0
0
0
0
0
0
0
0
0
0
0
0
0
0
0
0
0
0
0
0
0
1.081647598e-20
9.07070115e-21
7.098098099e-21
5.593791944e-21
5.519989954e-21
6.194348829e-21
3.459368899e-21
0
0
0
0
0
0
4.84806172e-21
4.750298743e-21
1.332605365e-20
8.399477027e-21
0
0
0
0
0
0
0
0
2.284969067e-18
6.36581825e-18
6.992339326e-18
5.865541526e-18
2.663435874e-20
0
0
0
0
0
0
0
0
0
0
0
0
0
0
0
0
0
0
0
0
0
0
0
0
0
0
0
0
0
0
6.748022402e-21
4.882016962e-21
4.141392014e-21
4.920645089e-21
6.573679842e-21
3.81407525e-21
0
0
0
0
0
0
2.107860387e-21
0
1.043534844e-20
1.253875736e-20
4.917666346e-21
0
0
0
0
0
0
0
0
2.198008723e-19
5.852572629e-18
6.711410718e-18
3.097537704e-18
0
0
0
0
0
0
0
0
0
0
0
0
0
0
0
0
0
0
0
0
0
0
0
0
0
0
0
0
0
0
0
4.597560364e-21
6.03260612e-21
7.980374326e-21
8.204477025e-21
4.613085595e-21
0
0
0
0
0
0
0
1.573885857e-21
1.197252006e-20
1.586256778e-20
1.209538273e-20
4.229588563e-21
0
0
0
0
0
0
0
0
9.871320777e-20
5.444494684e-18
6.133300031e-18
0
0
0
0
0
0
0
0
0
0
0
0
0
0
0
0
0
0
0
0
0
0
0
0
0
0
0
0
0
0
0
0
1.184277669e-20
1.21760702e-20
1.032198916e-20
5.781864095e-21
0
0
0
0
0
0
0
4.841948199e-21
0
1.441274752e-20
1.790810314e-20
1.225008633e-20
3.976703706e-21
0
0
0
0
0
0
0
0
1.023584572e-19
5.459904066e-18
6.63476073e-18
6.217582695e-18
3.082483505e-18
0
0
0
0
0
0
0
0
0
0
0
0
0
0
0
0
0
0
0
0
0
0
0
0
0
0
0
0
0
0
1.377874973e-20
8.477427272e-21
2.789628685e-21
0
0
0
0
0
0
0
0
9.573401935e-21
1.723191007e-20
1.921134829e-20
1.712732465e-20
1.099266532e-20
4.75020079e-21
0
0
0
0
0
0
0
0
1.064023031e-19
5.434618884e-18
6.732419245e-18
6.775050052e-18
5.039554766e-18
0
0
0
0
0
0
0
0
0
0
0
0
0
0
0
0
0
0
0
0
0
0
0
0
0
0
0
0
0
0
2.638532785e-21
0
0
0
0
0
0
0
0
0
1.110679183e-20
1.790415586e-20
2.141744093e-20
2.183104797e-20
1.866302403e-20
1.060304056e-20
0
0
0
0
0
0
0
0
0
0
3.548257519e-18
6.439429305e-18
7.032864691e-18
6.043848728e-18
0
0
0
0
0
0
0
0
0
0
0
0
0
0
0
0
0
0
0
0
0
0
0
0
0
0
0
0
0
0
0
0
0