/*--------------------------------*- C++ -*----------------------------------*\
  =========                 |
  \\      /  F ield         | OpenFOAM: The Open Source CFD Toolbox
   \\    /   O peration     | Website:  https://openfoam.org
    \\  /    A nd           | Version:  10
     \\/     M anipulation  |
\*---------------------------------------------------------------------------*/
FoamFile
{
    format      ascii;
    class       volScalarField;
    location    "0.02498436188";
    object      C2H3;
}
// * * * * * * * * * * * * * * * * * * * * * * * * * * * * * * * * * * * * * //

dimensions      [0 0 0 0 0 0 0];

internalField   nonuniform List<scalar> 
5170
(
0
0
0
0
0
0
0
0
0
0
0
0
0
0
0
0
0
0
0
0
0
0
0
0
0
0
0
0
0
0
0
0
0
0
0
0
0
0
0
0
0
0
0
0
0
0
0
0
0
0
0
0
0
0
0
0
0
0
0
0
0
0
0
0
0
0
0
0
0
0
0
0
0
0
0
0
0
0
0
0
0
0
0
0
0
0
0
0
0
0
0
0
0
0
0
0
0
0
0
0
2.497392235e-22
4.918600209e-24
0
5.096017229e-24
5.56909797e-24
4.240782816e-22
0
0
0
3.235847973e-25
6.917657293e-23
3.452886121e-23
2.338348096e-24
2.461533088e-24
0
0
2.432849226e-22
0
0
0
0
2.228969292e-20
0
0
0
0
0
0
2.110401963e-18
0
0
0
0
1.702573986e-15
0
0
8.772604318e-17
1.183118812e-15
0
0
2.345452279e-13
0
0
0
6.737203581e-14
4.944073769e-14
1.679148276e-12
1.529868943e-14
0
1.285735974e-15
1.509640991e-14
5.901052919e-13
0
4.659943597e-15
6.551240238e-15
3.719107126e-16
4.666431969e-14
0
0
4.566014838e-15
1.539552407e-15
0
0
3.120387645e-15
2.746147244e-13
1.492522985e-14
0
0
8.593014383e-14
7.072915377e-13
2.802876168e-13
6.189620942e-15
1.03012141e-14
3.227749946e-13
5.443624418e-13
3.783020155e-13
2.564994863e-13
2.586938125e-13
4.593466992e-13
6.963020157e-13
3.577051452e-13
5.911280046e-13
5.910929142e-13
5.017580692e-13
1.07296597e-12
5.273579308e-13
5.003149234e-13
5.170699452e-13
6.287911791e-13
5.316468677e-13
1.209569541e-12
6.696948502e-13
5.180720088e-13
9.770133421e-13
4.554691411e-13
2.399471632e-11
2.547561263e-11
8.044971162e-12
1.69548888e-12
8.0575366e-14
0
0
0
0
5.635318798e-11
0
2.681452991e-15
6.666195399e-12
9.80578399e-11
3.136943178e-09
0
2.886928599e-13
9.525702653e-12
1.368734571e-10
2.762852749e-09
0
6.000645235e-13
9.663115922e-12
1.316665674e-10
1.893569205e-09
0
1.433473073e-12
1.613011839e-11
2.169691718e-10
3.075617867e-09
0
2.849238677e-12
2.211707179e-11
3.775882189e-10
4.483247131e-09
3.282388311e-13
5.503385849e-12
3.35521474e-11
4.937501301e-10
4.764888463e-09
5.981242594e-13
6.16512501e-12
4.144321062e-11
4.941175515e-10
3.927036085e-09
1.164973257e-13
6.169113379e-13
4.739013485e-11
4.776007073e-10
3.377330287e-09
2.99022646e-13
3.628906671e-12
5.788386303e-11
5.128719719e-10
3.389091657e-09
1.800744334e-12
1.018135243e-11
8.089438943e-11
6.388618994e-10
3.967985912e-09
1.702882238e-12
1.295375404e-11
1.123031456e-10
7.832856217e-10
4.432901222e-09
0
1.838795241e-11
1.375193479e-10
8.291427558e-10
4.174008384e-09
3.998330655e-12
2.610615256e-11
1.687344945e-10
9.295950615e-10
4.430646583e-09
8.572405204e-12
3.79154823e-11
2.102672013e-10
1.053086695e-09
4.685737449e-09
1.419611264e-11
5.087402254e-11
2.462579367e-10
1.124406352e-09
4.649219133e-09
2.567686717e-11
7.828319604e-11
3.247075701e-10
1.360242843e-09
5.277412647e-09
4.869134126e-11
1.275218319e-10
4.602561744e-10
1.595873506e-09
5.613353206e-09
6.002725425e-11
1.473714173e-10
5.989078554e-10
2.078109159e-09
8.125926395e-09
1.277974841e-10
2.756836979e-10
8.532793465e-10
2.75047946e-09
8.934701829e-09
1.877929262e-10
3.263298565e-10
7.824743691e-10
2.020662229e-09
5.208858145e-09
2.201353209e-10
3.033812414e-10
5.350192463e-10
1.039680321e-09
2.06807382e-09
1.600785412e-10
1.883986332e-10
2.707188158e-10
4.065107508e-10
6.406611577e-10
7.422145169e-11
8.200463612e-11
9.918350159e-11
1.243524959e-10
1.622669863e-10
2.293834641e-11
2.390842473e-11
2.63247383e-11
2.956433932e-11
3.350280122e-11
5.018059059e-12
5.096029737e-12
5.328077052e-12
5.526131736e-12
5.657445036e-12
1.020041232e-12
1.02827835e-12
1.030597658e-12
1.005150469e-12
9.70399083e-13
2.034494659e-13
2.019280357e-13
1.963547786e-13
1.862948127e-13
1.730286689e-13
4.148707128e-14
4.096532184e-14
3.958359613e-14
3.676409856e-14
3.249186121e-14
9.026676289e-15
8.973069241e-15
8.821138484e-15
8.238750676e-15
7.30805835e-15
1.289411629e-15
1.331911612e-15
1.461871882e-15
1.750698955e-15
1.700030469e-15
4.724412193e-16
4.716306825e-16
4.708440099e-16
4.726415429e-16
4.563852693e-16
1.624646706e-16
1.603327933e-16
1.548818374e-16
1.497102347e-16
1.437634215e-16
6.849482047e-17
6.808544057e-17
6.713691038e-17
6.5891202e-17
6.452094946e-17
3.897452223e-17
3.884008693e-17
3.855216724e-17
3.820020778e-17
3.781732923e-17
2.563801645e-17
2.570924178e-17
2.586822831e-17
2.613613936e-17
2.65443117e-17
1.778878065e-17
1.787306082e-17
1.805321843e-17
1.830284544e-17
1.862565638e-17
1.027271535e-17
1.034593133e-17
1.050189261e-17
1.074062806e-17
1.104866944e-17
5.226499322e-18
5.250231555e-18
5.295321504e-18
5.358775109e-18
5.454798182e-18
2.22078209e-18
2.242431344e-18
2.241561676e-18
2.194195713e-18
2.025597621e-18
1.905113058e-19
1.807530485e-19
1.643630672e-19
1.506190834e-19
1.166677007e-19
0
0
0
0
0
0
5.136948648e-20
9.405561531e-20
9.237169307e-20
7.991647071e-20
5.560952944e-20
5.689124559e-20
5.460055559e-20
4.843242973e-20
3.333316286e-20
0
0
0
0
0
0
0
0
0
0
0
0
0
0
0
6.152831178e-20
4.951860986e-20
1.213523817e-20
4.458810135e-21
4.864899858e-21
2.049663593e-21
1.978356393e-21
1.804195901e-21
1.532292019e-21
1.126271103e-21
1.422576138e-21
1.476706949e-21
1.536078828e-21
1.442179763e-21
8.40820379e-22
0
0
0
0
0
0
0
0
0
0
0
0
0
0
0
0
0
0
0
0
0
0
0
0
0
1.013640253e-21
1.007889244e-21
9.712663854e-22
7.384093539e-22
0
0
0
0
0
0
0
0
0
0
0
0
0
0
0
0
1.618653652e-21
1.528528523e-21
1.40034443e-21
1.279948091e-21
1.25276549e-21
4.567958462e-21
4.588334331e-21
4.63829742e-21
4.720977833e-21
4.828498314e-21
6.92083329e-21
6.918093223e-21
6.914908162e-21
6.913074344e-21
6.907217899e-21
6.206508499e-21
6.252203494e-21
6.35187977e-21
6.498526831e-21
6.626359868e-21
1.805772551e-20
1.807611328e-20
1.807085617e-20
1.801157288e-20
1.773073908e-20
2.005960578e-20
2.003257626e-20
1.991636275e-20
1.967269974e-20
1.911938326e-20
1.71600542e-20
1.701225496e-20
1.663156486e-20
1.599128554e-20
1.492578625e-20
6.737968967e-21
6.879208434e-21
7.164019416e-21
7.55295068e-21
7.977914675e-21
1.915213072e-20
1.915992227e-20
1.91880178e-20
1.927745301e-20
1.94925236e-20
2.174230073e-20
2.161624438e-20
2.131812612e-20
2.083103025e-20
2.015551561e-20
9.134916261e-21
9.104733832e-21
8.955687732e-21
8.49455877e-21
7.399477056e-21
4.709387548e-10
3.611985624e-08
2.038169397e-08
1.075229748e-08
2.031550055e-08
2.591074937e-08
2.345019709e-08
1.673888301e-08
1.353997702e-08
1.323352583e-08
1.498279883e-08
1.562336168e-08
1.344650707e-08
1.391363225e-08
1.410658112e-08
1.315690832e-08
1.370141307e-08
1.685985183e-08
2.260549381e-08
2.165857398e-08
1.043285767e-08
3.414668794e-09
8.968939962e-10
1.989913126e-10
3.726969811e-11
5.839533767e-12
9.552840267e-13
1.648526422e-13
2.785700359e-14
6.504789534e-15
1.558171594e-15
4.370966258e-16
1.408483292e-16
6.391806764e-17
3.761926943e-17
2.694258521e-17
1.89078456e-17
1.131941434e-17
5.529845215e-18
1.868608733e-18
3.534492936e-20
0
5.950938988e-20
5.651988848e-21
0
0
0
7.415867914e-21
1.007562682e-21
0
0
0
0
0
0
0
0
0
0
1.326151331e-21
4.89081455e-21
6.882574062e-21
6.552806218e-21
1.724010481e-20
1.838672037e-20
1.380498753e-20
8.243529091e-21
1.974438602e-20
1.966064962e-20
6.166609434e-21
1.743117907e-09
8.588202093e-09
5.251540442e-10
6.355511857e-11
4.666753839e-12
2.040066938e-07
3.41251407e-06
1.956313388e-07
5.825989982e-09
2.256976049e-10
8.385774815e-08
7.223278217e-07
8.811982484e-08
5.169746618e-09
4.302666018e-10
3.99197158e-08
3.349865446e-07
1.813247474e-06
1.393371981e-07
7.09800536e-09
9.105300938e-08
1.091011868e-06
1.113051415e-05
1.094543603e-06
7.61944596e-08
1.05260616e-07
1.065718392e-06
8.848724551e-06
1.150643417e-06
1.064233362e-07
8.527215702e-08
7.239605823e-07
5.008902309e-06
8.035640653e-07
9.566888828e-08
5.553246068e-08
4.080144777e-07
2.457139965e-06
1.264188013e-06
1.669271655e-07
4.394291549e-08
3.216513717e-07
2.07424602e-06
7.26619912e-06
9.91573161e-07
4.25898891e-08
3.157101914e-07
2.027743493e-06
9.751959077e-06
1.603095413e-06
4.715889617e-08
3.207580852e-07
1.986263211e-06
9.916464562e-06
1.810752061e-06
4.69055485e-08
2.97322777e-07
1.72399636e-06
8.210252665e-06
1.701471481e-06
3.799138621e-08
2.545258364e-07
1.312999064e-06
5.84483952e-06
2.650152852e-06
3.891662013e-08
2.343872295e-07
1.120096222e-06
4.967183934e-06
6.323851911e-06
3.640942614e-08
2.026033119e-07
1.001953907e-06
4.356789903e-06
7.71730447e-06
3.427518031e-08
1.821798203e-07
9.331973126e-07
3.91711053e-06
8.45156966e-06
3.428108529e-08
1.727878618e-07
8.73981194e-07
3.578301798e-06
8.484148407e-06
4.21469005e-08
2.093277273e-07
9.509439835e-07
3.789802375e-06
8.643209357e-06
5.602861762e-08
2.708218677e-07
1.193301081e-06
4.603279299e-06
8.254475643e-06
5.161636707e-08
2.281848091e-07
9.037826591e-07
3.073352733e-06
5.441315936e-06
2.177144257e-08
7.253696359e-08
2.135149862e-07
5.236619878e-07
7.61067121e-07
6.107367458e-09
1.506114936e-08
3.305723296e-08
6.125365187e-08
7.420436771e-08
1.386200618e-09
2.605536827e-09
4.385353543e-09
6.337336783e-09
6.550638915e-09
2.69737168e-10
4.002924617e-10
5.361752235e-10
6.297186075e-10
5.703266477e-10
4.671092831e-11
5.602584881e-11
6.243037113e-11
6.209800405e-11
5.046878346e-11
6.448391159e-12
6.733382272e-12
6.355392069e-12
5.377437609e-12
3.923287721e-12
9.834232293e-13
9.25363398e-13
7.756940889e-13
5.939379185e-13
4.01280017e-13
1.612592671e-13
1.410189702e-13
1.193459238e-13
7.902122115e-14
5.125889816e-14
1.831084386e-14
2.380322638e-14
1.986607613e-14
1.240863846e-14
2.439799474e-15
5.329466665e-15
3.548359569e-15
3.19867556e-15
2.705638045e-15
1.493160423e-15
1.423930855e-15
1.098596536e-15
7.349710054e-16
6.884461229e-16
4.976375813e-16
4.177300214e-16
3.50782482e-16
2.549447225e-16
2.103679745e-16
1.660943072e-16
1.383109679e-16
1.230729426e-16
1.093962927e-16
9.262502458e-17
7.79080125e-17
6.394791783e-17
5.865053018e-17
5.193897196e-17
4.798482967e-17
4.806441242e-17
3.753982705e-17
3.697233105e-17
3.638771558e-17
3.750753189e-17
3.766923393e-17
2.755820904e-17
2.872761191e-17
2.918202281e-17
2.99593156e-17
3.142855223e-17
1.945089521e-17
2.025704654e-17
2.087290077e-17
2.148304106e-17
2.105381743e-17
1.181320196e-17
1.22128706e-17
1.196231179e-17
1.133630559e-17
1.108071901e-17
5.674956946e-18
5.472445292e-18
4.743291143e-18
3.977318522e-18
3.880348137e-18
1.616535718e-18
1.05826724e-18
3.372055187e-19
8.143168958e-20
6.37226514e-19
0
0
0
4.299354859e-20
7.091040573e-20
0
1.810273846e-21
6.43813026e-20
3.186460918e-20
0
4.655687806e-20
4.651739545e-20
2.530773963e-20
0
0
0
0
0
0
0
0
0
0
0
0
0
0
0
0
0
0
4.857168545e-20
2.106628789e-20
6.51735149e-20
2.748702291e-20
8.570630037e-21
1.222231557e-20
1.999898114e-20
5.933053071e-21
0
1.486104392e-21
1.654804389e-21
0
0
0
0
0
0
0
0
0
0
0
0
0
0
0
0
0
0
0
0
0
0
0
0
0
0
0
0
0
1.77987052e-22
0
0
0
0
0
0
0
0
0
0
0
0
0
0
0
0
0
0
0
0
0
0
7.846909559e-22
1.322695327e-21
1.648859947e-21
2.037738924e-21
2.693610994e-21
2.987010835e-21
4.958313183e-21
5.083569932e-21
5.171157053e-21
5.253577811e-21
5.354954422e-21
6.836632436e-21
6.870726991e-21
7.083126854e-21
7.503428813e-21
8.386966645e-21
6.676905453e-21
8.864105288e-21
1.406287958e-20
1.51907615e-20
1.575051186e-20
1.800208389e-20
1.800089492e-20
1.780037966e-20
1.738118737e-20
1.669822409e-20
1.879227855e-20
1.796143666e-20
1.674461122e-20
1.525457196e-20
1.354822861e-20
1.366370209e-20
1.203309648e-20
1.014548951e-20
5.411072756e-21
4.760360212e-21
8.815958883e-21
9.490088774e-21
1.008948855e-20
1.056762395e-20
1.108685805e-20
2.005988189e-20
1.983611261e-20
1.941124344e-20
1.83522873e-20
1.669875511e-20
1.908108588e-20
1.745489565e-20
1.490099218e-20
1.151770416e-20
7.968949586e-21
4.562905811e-21
1.76876777e-21
0
2.587297645e-22
0
1.115335251e-14
1.310822456e-18
0
0
0
0
0
0
0
0
0
0
0
0
0
0
0
0
0
0
0
0
0
0
0
0
0
0
0
0
0
0
0
0
0
0
0
0
0
0
0
0
0
0
0
0
0
0
0
0
0
0
0
0
0
0
0
0
0
0
7.897574178e-13
1.339003466e-14
0
0
0
0
0
0
0
0
0
0
0
0
0
0
0
0
0
0
0
0
0
0
0
0
0
0
0
0
0
0
0
0
0
0
0
0
0
0
0
0
0
0
0
0
0
0
0
0
0
0
0
0
0
0
0
0
0
0
2.475208156e-12
0
0
0
0
0
0
0
0
0
0
0
0
0
0
0
0
0
0
0
0
0
0
0
0
0
0
0
0
0
0
0
0
0
0
0
0
0
0
0
0
0
0
0
0
0
0
0
0
0
0
0
0
0
0
0
0
0
0
0
1.078932399e-10
3.908786028e-13
2.929286482e-14
0
0
0
0
0
0
0
0
0
0
0
0
0
0
0
0
0
0
0
0
0
0
0
0
0
0
0
0
0
0
0
0
0
0
0
0
0
0
0
0
0
0
0
0
0
0
0
0
0
0
0
0
0
0
0
0
0
2.180399902e-09
1.757963623e-11
1.301272921e-13
4.259575324e-14
0
0
0
0
0
0
0
0
0
0
0
0
0
0
0
0
0
0
0
0
0
0
0
0
0
0
0
0
0
0
0
0
0
0
0
0
0
0
0
0
0
0
0
0
0
0
0
0
0
0
0
0
0
0
0
0
5.5184435e-09
1.104991017e-10
7.080988361e-13
1.826684044e-13
1.22761461e-14
0
0
0
0
0
0
0
0
0
0
0
0
0
0
0
0
0
0
0
0
0
0
0
0
0
0
0
0
0
0
0
0
0
0
0
0
0
0
0
0
0
0
0
0
0
0
0
0
0
0
0
0
0
0
0
6.683972168e-09
2.69704368e-10
4.49662743e-12
2.848047078e-14
1.614855716e-14
0
0
0
0
0
0
0
0
0
0
0
0
0
0
0
0
0
0
0
0
0
0
0
0
0
0
0
0
0
0
0
0
0
0
0
0
0
0
0
0
0
0
0
0
0
0
0
0
0
0
0
0
0
0
0
1.275307502e-08
7.716958846e-10
2.690335423e-11
3.989161119e-13
0
0
0
0
0
0
0
0
0
0
0
0
0
0
0
0
0
0
0
0
0
0
0
0
0
0
0
0
0
0
0
0
0
0
0
0
0
0
0
0
0
0
0
0
0
0
0
0
0
0
0
0
0
0
0
0
8.613376208e-08
5.398246846e-09
2.516713956e-10
7.182367259e-12
9.460353001e-14
1.99633452e-14
0
0
0
0
0
0
0
0
0
0
0
0
0
0
0
0
0
0
0
0
0
0
0
0
0
0
0
0
0
0
0
0
0
0
0
0
0
0
0
0
0
0
0
0
0
0
0
0
0
0
0
0
0
0
1.825995249e-07
1.335096975e-08
8.200348294e-10
3.685850074e-11
9.982359675e-13
1.204225253e-14
9.805201408e-15
0
0
0
0
0
0
0
0
0
0
0
0
0
0
0
0
0
0
0
0
0
0
0
0
0
0
0
0
0
0
0
0
0
0
0
0
0
0
0
0
0
0
0
0
0
0
0
0
0
0
0
0
0
2.564909703e-07
2.535241115e-08
1.946019672e-09
1.383544075e-10
5.948568166e-12
1.230880924e-13
2.988071471e-14
8.291398958e-16
0
0
0
0
0
0
0
0
0
0
0
0
0
0
0
0
0
0
0
0
0
0
0
0
0
0
0
0
0
0
0
0
0
0
0
0
0
0
0
0
0
0
0
0
0
0
0
0
0
0
0
0
2.296756248e-07
2.4447257e-08
2.311933008e-09
3.431116058e-10
2.241305477e-11
7.091338176e-13
8.979836293e-15
5.467363836e-15
0
0
0
0
0
0
0
0
0
0
0
0
0
0
0
0
0
0
0
0
0
0
0
0
0
0
0
0
0
0
0
0
0
0
0
0
0
0
0
0
0
0
0
0
0
0
0
0
0
0
0
0
3.914591374e-07
4.795860542e-08
4.606478095e-09
8.544025919e-10
7.684818619e-11
3.208625301e-12
5.827530231e-14
1.511652353e-14
0
0
0
0
0
0
0
0
0
0
0
0
0
0
0
0
0
0
0
0
0
0
0
0
0
0
0
0
0
0
0
0
0
0
0
0
0
0
0
0
0
0
0
0
0
0
0
0
0
0
0
0
9.928081315e-07
1.343092877e-07
1.114775215e-08
1.67524875e-09
2.249868665e-10
1.179094467e-11
2.959734792e-13
5.29326523e-14
1.84114977e-15
0
0
0
0
0
0
0
0
0
0
0
0
0
0
0
0
0
0
0
0
0
0
0
0
0
0
0
0
0
0
0
0
0
0
0
0
0
0
0
0
0
0
0
0
0
0
0
0
0
0
0
1.355693523e-06
2.164207559e-07
2.602842447e-08
3.361745954e-09
5.961288007e-10
3.461025347e-11
1.071879024e-12
2.077914405e-14
8.472651081e-15
0
0
0
0
0
0
0
0
0
0
0
0
0
0
0
0
0
0
0
0
0
0
0
0
0
0
0
0
0
0
0
0
0
0
0
0
0
0
0
0
0
0
0
0
0
0
0
0
0
0
0
1.630253888e-06
2.722412738e-07
3.798956234e-08
4.918546784e-09
1.002876228e-09
6.060376823e-11
2.173375601e-12
3.379201816e-14
9.671806151e-15
0
0
0
0
0
0
0
0
0
0
0
0
0
0
0
0
0
0
0
0
0
0
0
0
0
0
0
0
0
0
0
0
0
0
0
0
0
0
0
0
0
0
0
0
0
0
0
0
0
0
0
1.78236546e-06
3.140990156e-07
4.973202741e-08
6.949769836e-09
9.918112098e-10
5.899151547e-11
2.364285649e-12
9.34961819e-14
9.240228509e-15
9.352114197e-19
0
0
0
0
0
0
0
0
0
0
0
0
0
0
0
0
0
0
0
0
0
0
0
0
0
0
0
0
0
0
0
0
0
0
0
0
0
0
0
0
0
0
0
0
0
0
0
0
0
0
1.864417843e-06
3.359072767e-07
5.115578928e-08
1.570301298e-08
1.202751141e-09
6.234637975e-11
2.572494715e-12
8.653131141e-14
3.677589813e-15
0
0
0
0
0
0
0
0
0
0
0
0
0
0
0
0
0
0
0
0
0
0
0
0
0
0
0
0
0
0
0
0
0
0
0
0
0
0
0
0
0
0
0
0
0
0
0
0
0
0
0
1.640270601e-06
3.073695764e-07
3.785670033e-08
4.368986568e-09
3.050144225e-10
1.711576876e-11
8.17817228e-13
1.092429354e-13
9.830787234e-15
0
0
0
0
0
0
0
0
0
0
0
0
0
0
0
0
0
0
0
0
0
0
0
0
0
0
0
0
0
0
0
0
0
0
0
0
0
0
0
0
0
0
0
0
0
0
0
0
0
0
0
1.467346359e-06
3.335410507e-07
4.746100783e-08
3.977670038e-09
2.506881388e-10
1.358057154e-11
6.57696804e-13
6.569263513e-14
8.889182159e-15
0
0
0
0
0
0
0
0
0
0
0
0
0
0
0
0
0
0
0
0
0
0
0
0
0
0
0
0
0
0
0
0
0
0
0
0
0
0
0
0
0
0
0
0
0
0
0
0
0
0
0
2.650697314e-07
5.954544116e-08
8.382982447e-09
8.328012258e-10
6.68085528e-11
4.634061289e-12
3.592142896e-13
2.131825792e-14
2.780798027e-15
0
0
0
0
0
0
0
0
0
0
0
0
0
0
0
0
0
0
0
0
0
0
0
0
0
0
0
0
0
0
0
0
0
0
0
0
0
0
0
0
0
0
0
0
0
0
0
0
0
0
0
2.967883546e-08
7.027268783e-09
1.12996531e-09
1.38531609e-10
1.391643688e-11
1.164170601e-12
1.789767975e-15
1.990892193e-15
7.095362728e-17
0
0
0
0
0
0
0
0
0
0
0
0
0
0
0
0
0
0
0
0
0
0
0
0
0
0
0
0
0
0
0
0
0
0
0
0
0
0
0
0
0
0
0
0
0
0
0
0
0
0
0
2.904736432e-09
7.63200763e-10
1.434168586e-10
2.097367434e-11
2.484850661e-12
2.517747585e-13
3.573995219e-14
2.314300913e-15
8.182372366e-17
1.731943263e-18
0
0
0
0
0
0
0
0
0
0
0
0
0
0
0
0
0
0
0
0
0
0
0
0
0
0
0
0
0
0
0
0
0
0
0
0
0
0
0
0
0
0
0
0
0
0
0
0
0
0
2.752472133e-10
8.10051993e-11
1.738879169e-11
2.901839521e-12
3.885342242e-13
3.925389735e-14
0
3.824635336e-17
6.968845552e-17
1.484012693e-17
3.271676881e-19
0
0
0
0
0
0
0
0
0
0
0
0
0
0
0
0
0
0
0
0
0
0
0
0
0
0
0
0
0
0
0
0
0
0
0
0
0
0
0
0
0
0
0
0
0
0
0
0
0
2.571317741e-11
8.28972598e-12
1.770687384e-12
3.270421416e-13
4.853159137e-14
7.393429829e-15
1.270606912e-15
2.166093457e-16
3.95096031e-17
2.101523212e-17
3.412256537e-17
0
0
3.577372314e-18
0
0
0
0
0
0
0
0
0
0
0
0
0
0
0
0
0
0
0
0
0
0
0
0
0
0
0
0
0
0
0
0
0
0
0
0
0
0
0
0
0
0
0
0
0
0
2.073248409e-12
7.360116567e-13
1.974869317e-13
5.388770225e-14
8.754212375e-15
5.177770875e-16
1.27999715e-16
0
0
1.890011714e-17
3.816808704e-18
6.459532758e-18
0
0
0
0
0
0
0
0
0
0
0
0
0
0
0
0
0
0
0
0
0
0
0
0
0
0
0
0
0
0
0
0
0
0
0
0
0
0
0
0
0
0
0
0
0
0
0
0
2.107096405e-13
7.993102946e-14
2.33078348e-14
0
2.336927443e-16
0
1.060195167e-17
0
3.342115051e-18
1.876540155e-17
2.224885943e-17
3.288442182e-18
6.282933432e-18
0
0
0
0
0
0
0
0
0
0
0
0
0
0
0
0
0
0
0
0
0
0
0
0
0
0
0
0
0
0
0
0
0
0
0
0
0
0
0
0
0
0
0
0
0
0
0
3.308120615e-14
1.424738731e-14
4.000494928e-15
8.116548262e-16
4.564717897e-16
1.345059442e-16
7.194156425e-17
0
0
8.671271634e-18
5.499331045e-18
4.787180514e-20
7.60789326e-18
0
0
0
0
0
0
0
0
0
0
0
0
0
0
0
0
0
0
0
0
0
0
0
0
0
0
0
0
0
0
0
0
0
0
0
0
0
0
0
0
0
0
0
0
0
0
0
3.533437342e-15
2.431607601e-16
6.955095224e-16
3.4470927e-16
2.450932792e-16
9.77465962e-17
5.991114629e-17
1.753991671e-17
0
0
0
0
2.564080929e-18
1.12068284e-17
0
0
0
0
0
0
0
0
0
0
0
0
0
0
0
0
0
0
0
0
0
0
0
0
0
0
0
0
0
0
0
0
0
0
0
0
0
0
0
0
0
0
0
0
0
0
4.759179464e-16
4.662007579e-16
2.624987129e-16
8.070870971e-17
6.889314829e-17
4.446677495e-17
3.966194225e-17
2.83749721e-17
0
0
0
6.834678173e-18
2.179478176e-17
4.744004917e-18
0
0
0
0
0
0
0
0
0
0
0
0
0
0
0
0
0
0
0
0
0
0
0
0
0
0
0
0
0
0
0
0
0
0
0
0
0
0
0
0
0
0
0
0
0
0
3.233367591e-16
1.993542787e-16
1.029075056e-16
3.768806913e-17
5.35860547e-17
3.887905469e-17
3.388930136e-17
3.005968627e-17
2.698079188e-17
0
1.910418069e-17
4.193323119e-17
8.016561159e-18
3.458773956e-18
0
0
0
0
0
0
0
0
0
0
0
0
0
0
0
0
0
0
0
0
0
0
0
0
0
0
0
0
0
0
0
0
0
0
0
0
0
0
0
0
0
0
0
0
0
0
1.135887604e-16
8.722564459e-17
5.627449269e-17
5.625374341e-17
4.573470013e-17
3.84649639e-17
3.924548541e-17
3.121282716e-17
3.034366462e-17
4.336462269e-17
2.540991298e-17
2.155106051e-17
7.348465469e-18
0
0
0
0
0
0
0
0
0
0
0
0
0
0
0
0
0
0
0
0
0
0
0
0
0
0
0
0
0
0
0
0
0
0
0
0
0
0
0
0
0
0
0
0
0
0
0
6.582722689e-17
5.487984473e-17
4.637031711e-17
4.158138082e-17
4.003987007e-17
3.63473829e-17
3.860760401e-17
3.343245237e-17
2.613213812e-17
2.726046591e-17
1.715398555e-17
9.931034724e-18
8.451281529e-18
2.013272329e-19
0
0
0
0
0
0
0
0
0
0
0
0
0
0
0
0
0
0
0
0
0
0
0
0
0
0
0
0
0
0
0
0
0
0
0
0
0
0
0
0
0
0
0
0
0
0
4.570887122e-17
4.210149625e-17
4.083677107e-17
3.822533465e-17
3.817903347e-17
3.587078881e-17
3.29102684e-17
2.979835816e-17
1.874905756e-17
1.015447941e-17
6.583805725e-18
4.217669844e-18
5.770390998e-18
1.470552717e-18
0
0
0
0
0
0
0
0
0
0
0
0
0
0
0
0
0
0
0
0
0
0
0
0
0
0
0
0
0
0
0
0
0
0
0
0
0
0
0
0
0
0
0
0
0
0
3.796407132e-17
3.874333227e-17
3.531792636e-17
3.068746592e-17
3.074023392e-17
2.862591386e-17
2.497392653e-17
2.455568352e-17
1.582443068e-17
6.539589804e-18
6.291268112e-18
3.936601019e-18
5.057737441e-18
6.653715201e-18
0
0
0
0
0
0
0
0
0
0
0
0
0
0
0
0
0
0
0
0
0
0
0
0
0
0
0
0
0
0
0
0
0
0
0
0
0
0
0
0
0
0
0
0
0
0
3.415160145e-17
3.303910617e-17
2.886924263e-17
2.095401196e-17
1.713377048e-17
1.555998137e-17
1.433648272e-17
1.683238492e-17
9.790443317e-18
3.512613732e-18
5.62293035e-18
3.139926105e-18
5.740745094e-18
6.914988087e-18
0
0
0
0
0
0
0
0
0
0
0
0
0
0
0
0
0
0
0
0
0
0
0
0
0
0
0
0
0
0
0
0
0
0
0
0
0
0
0
0
0
0
0
0
0
0
2.175032716e-17
2.133493073e-17
1.50955012e-17
9.076860136e-18
6.664077274e-18
5.808176481e-18
5.902272147e-18
9.859279477e-18
4.011736355e-18
1.929627175e-19
2.495286805e-18
1.062427275e-18
1.934686981e-18
3.014789876e-18
0
0
0
0
0
0
0
0
0
0
0
0
0
0
0
0
0
0
0
0
0
0
0
0
0
0
0
0
0
0
0
0
0
0
0
0
0
0
0
0
0
0
0
0
0
0
1.182803572e-17
1.173502206e-17
6.181501918e-18
1.56803458e-18
5.294196388e-19
6.754106955e-19
1.683962509e-18
6.569524218e-18
1.944860209e-18
0
6.176465838e-19
0
0
2.532053422e-18
7.837827435e-18
4.184863236e-18
0
0
0
0
0
0
0
0
0
0
0
0
0
0
0
0
0
0
0
0
0
0
0
0
0
0
0
0
0
0
0
0
0
0
0
0
0
0
0
0
0
0
0
0
5.298298712e-18
3.420469959e-18
1.112410313e-18
0
1.865713696e-19
5.536546349e-21
0
1.933572231e-19
0
0
1.739075734e-19
0
0
1.965227701e-18
6.40712439e-18
0
0
0
0
0
0
0
0
0
0
0
0
0
0
0
0
0
0
0
0
0
0
0
0
0
0
0
0
0
0
0
0
0
0
0
0
0
0
0
0
0
0
0
0
0
8.570709029e-19
2.475909382e-19
0
0
0
0
0
3.815316266e-20
0
0
6.70280009e-20
0
0
3.57121998e-19
0
0
0
0
0
0
0
0
0
0
0
0
0
0
0
0
0
0
0
0
0
0
0
0
0
0
0
0
0
0
0
0
0
0
0
0
0
0
0
0
0
0
0
0
0
0
0
0
0
1.08714003e-19
1.13080138e-20
0
0
3.728479525e-20
0
0
5.028234982e-20
0
0
3.540574733e-19
0
5.507463811e-19
1.636511727e-18
0
0
5.350848772e-18
0
0
0
0
0
0
0
0
0
0
0
0
0
0
0
0
0
0
0
0
0
0
0
0
0
0
0
0
0
0
0
0
0
0
0
0
0
0
0
0
0
0
0
0
0
0
0
4.25790595e-20
0
0
4.794314658e-20
0
0
3.515244554e-19
0
1.39959194e-18
2.9530602e-18
5.398509866e-18
0
3.455345169e-18
0
0
0
0
0
0
0
0
0
0
0
0
0
0
0
0
0
0
0
0
0
0
0
0
0
0
0
0
0
0
0
0
0
0
0
0
0
0
0
0
0
0
1.2628851e-20
2.991556249e-21
0
0
8.650238349e-20
4.623650354e-20
0
0
0
0
0
3.43728028e-19
0
5.333997814e-20
0
0
0
0
1.418589892e-19
2.866157334e-18
0
0
0
0
0
0
0
0
0
0
0
0
0
0
0
0
0
0
0
0
0
0
0
0
0
0
0
0
0
0
0
0
0
0
0
0
0
0
0
1.253639878e-20
0
0
0
0
3.798572288e-20
0
0
0
0
0
0
6.411324944e-20
0
0
0
1.872333584e-18
0
0
7.013092603e-18
6.849259414e-18
0
0
0
0
0
0
0
0
0
0
0
0
0
0
0
0
0
0
0
0
0
0
0
0
0
0
0
0
0
0
0
0
0
0
0
0
0
0
1.158192327e-20
1.614354082e-20
2.485182474e-22
0
0
0
3.648504819e-20
0
0
0
5.029279199e-22
0
0
1.484115738e-19
0
0
0
5.997785787e-18
2.777080508e-17
3.553916473e-18
6.816772657e-18
6.6035256e-18
1.20010162e-18
0
0
0
0
0
0
0
0
0
0
0
0
0
0
0
0
0
0
0
0
0
0
0
0
0
0
0
0
0
0
0
0
0
0
0
0
0
7.530246169e-21
3.236296096e-22
0
0
0
0
0
0
0
0
0
0
0
5.387730057e-20
3.618118927e-19
0
0
1.259843081e-18
8.29111658e-18
1.91765023e-18
2.914715005e-19
5.669604361e-18
0
0
0
0
0
0
0
0
0
0
0
0
0
0
0
0
0
0
0
0
0
0
0
0
0
0
0
0
0
0
0
0
0
0
0
0
0
0
7.339870784e-22
0
0
0
0
3.499599612e-20
0
0
0
0
0
0
0
5.505036934e-20
3.599865084e-19
0
0
0
0
1.290308958e-19
6.721378782e-20
5.523287202e-18
0
0
0
0
0
0
0
0
0
0
0
0
0
0
0
0
0
0
0
0
0
0
0
0
0
0
0
0
0
0
0
0
0
0
0
0
0
0
0
0
0
0
0
0
0
0
0
0
0
0
0
6.256725328e-20
3.596541746e-19
0
0
0
3.386338791e-19
1.214894861e-17
1.708889343e-18
5.445624879e-18
6.211475275e-18
1.21212999e-18
0
0
0
0
0
0
0
0
0
0
0
0
0
0
0
0
0
0
0
0
0
0
0
0
0
0
0
0
0
0
0
0
0
0
0
0
0
0
0
0
3.05602739e-20
0
0
0
0
0
0
0
0
7.759807751e-20
3.595925172e-19
0
0
0
3.580607169e-18
2.594190719e-17
5.494456037e-18
1.160660717e-18
5.946002173e-18
0
0
0
0
0
0
0
0
0
0
0
0
0
0
0
0
0
0
0
0
0
0
0
0
0
0
0
0
0
0
0
0
0
0
0
0
0
0
0
0
0
0
0
0
0
0
4.09707567e-21
0
0
0
8.146664664e-20
3.593578432e-19
0
0
0
5.994250543e-19
7.320000269e-18
1.929866322e-18
3.836749517e-19
5.923940528e-18
1.912340348e-18
0
0
0
0
0
0
0
0
0
0
0
0
0
0
0
0
0
0
0
0
0
0
0
0
0
0
0
0
0
0
0
0
0
0
0
0
0
0
0
0
0
0
0
0
3.821821011e-23
4.295729493e-21
0
0
0
8.847865706e-20
3.579319582e-19
1.187529196e-20
0
0
0
0
0
3.213457509e-20
5.496375843e-18
6.281654146e-18
1.184011937e-18
0
0
0
0
0
0
0
0
0
0
0
0
0
0
0
0
0
0
0
0
0
0
0
0
0
0
0
0
0
0
0
0
0
0
0
0
0
0
0
0
0
0
0
5.219879663e-23
4.714589999e-21
5.590808976e-21
0
3.814352587e-21
8.712635974e-20
3.670409781e-19
1.721268741e-20
0
0
0
0
0
0
1.69565918e-19
5.715697992e-18
0
0
0
0
0
0
0
0
0
0
0
0
0
0
0
0
0
0
0
0
0
0
0
0
0
0
0
0
0
0
0
0
0
0
0
0
0
0
0
0
0
0
0
7.922391335e-23
4.92303703e-21
5.122453353e-21
5.088651285e-21
4.057016845e-22
4.407059108e-21
5.488010697e-20
3.765606119e-19
5.350629409e-21
0
0
0
0
1.599348737e-18
3.92650251e-20
1.101451841e-19
6.267795196e-18
4.801302064e-18
8.949147605e-19
0
0
0
0
0
0
0
0
0
0
0
0
0
0
0
0
0
0
0
0
0
0
0
0
0
0
0
0
0
0
0
0
0
0
0
0
0
0
0
0
3.240277821e-23
3.463221292e-22
4.843202533e-21
5.263494667e-21
4.802831478e-21
0
2.632069267e-21
3.68857031e-20
1.386607264e-19
0
1.40476156e-21
0
0
0
6.55040264e-19
0
1.507431252e-19
6.609825697e-18
6.885624184e-18
1.394419334e-18
0
0
0
0
0
0
0
0
0
0
0
0
0
0
0
0
0
0
0
0
0
0
0
0
0
0
0
0
0
0
0
0
0
0
0
0
0
0
0
0
5.161848279e-22
5.697218382e-21
5.926820665e-21
5.450161269e-21
6.377354743e-22
1.594252428e-21
3.129251601e-21
3.662073117e-20
1.32098288e-19
0
1.68261942e-21
0
0
0
0
0
0
2.15563436e-18
6.256645686e-18
0
0
0
0
0
0
0
0
0
0
0
0
0
0
0
0
0
0
0
0
0
0
0
0
0
0
0
0
0
0
0
0
0
0
0
0
0
0
0
3.751935977e-22
4.362831828e-22
1.152818451e-21
6.724523568e-21
7.020108674e-21
5.914452489e-21
7.337516736e-22
0
0
0
0
0
2.112507259e-21
0
0
0
0
0
0
2.788541739e-19
7.034394916e-18
7.50122522e-18
3.510063714e-18
2.270927318e-19
0
0
0
0
0
0
0
0
0
0
0
0
0
0
0
0
0
0
0
0
0
0
0
0
0
0
0
0
0
0
0
0
0
0
0
1.031630164e-21
1.008869819e-21
1.535226986e-21
7.069301059e-21
7.727396043e-21
6.709320482e-21
1.05816812e-21
6.838377314e-22
0
0
0
0
0
2.186910945e-21
0
0
0
0
0
0
1.664129162e-19
6.853603909e-18
7.667748928e-18
3.120335792e-18
1.63724318e-19
0
0
0
0
0
0
0
0
0
0
0
0
0
0
0
0
0
0
0
0
0
0
0
0
0
0
0
0
0
0
0
0
0
9.550098516e-22
1.204805385e-21
1.458983479e-21
2.105129678e-21
7.557978859e-21
8.281767668e-21
7.902517773e-21
6.560525767e-21
8.263360547e-22
0
0
0
0
0
0
1.861688115e-21
0
0
0
0
0
0
2.499757466e-20
5.516656056e-18
6.801229294e-18
1.317982245e-18
0
0
0
0
0
0
0
0
0
0
0
0
0
0
0
0
0
0
0
0
0
0
0
0
0
0
0
0
0
0
0
0
0
9.745933769e-22
9.542730971e-22
9.397147995e-22
1.134399723e-21
2.095399592e-21
7.604281507e-21
8.177443129e-21
7.380547737e-21
2.183038708e-21
1.690931088e-21
0
0
0
0
1.141896639e-21
1.937643987e-21
3.947661292e-21
0
0
0
0
0
0
0
4.660777297e-19
6.711014459e-18
4.910603885e-18
2.065449084e-18
0
0
0
0
0
0
0
0
0
0
0
0
0
0
0
0
0
0
0
0
0
0
0
0
0
0
0
0
0
0
0
0
3.160972819e-21
3.340804014e-21
3.733561343e-21
8.815124439e-21
9.358617397e-21
9.147445373e-21
8.060295571e-21
2.921234059e-21
1.949567751e-21
6.335585974e-23
0
0
0
0
0
9.160560267e-22
5.928614523e-21
0
0
0
0
0
0
0
2.358641711e-19
7.271849081e-18
8.290085096e-18
6.777178328e-18
0
0
0
0
0
0
0
0
0
0
0
0
0
0
0
0
0
0
0
0
0
0
0
0
0
0
0
0
0
0
0
0
5.617991636e-21
6.363139357e-21
1.120165164e-20
1.15815176e-20
1.105521756e-20
9.944438036e-21
8.768551346e-21
4.762409506e-21
5.118877193e-21
2.719508867e-22
1.971598628e-20
6.367932439e-20
1.50354522e-19
2.650146704e-19
4.787498765e-20
5.176825953e-20
2.910162064e-20
0
0
0
0
0
0
0
1.844039517e-19
7.035660673e-18
8.490587404e-18
7.686176942e-18
0
0
0
0
0
0
0
0
0
0
0
0
0
0
0
0
0
0
0
0
0
0
0
0
0
0
0
0
0
0
0
0
1.320856038e-20
1.38465067e-20
1.377519971e-20
1.302191493e-20
1.17023216e-20
1.020920135e-20
5.74057422e-21
5.309324901e-21
7.692999674e-23
0
0
6.96925918e-22
7.166288234e-21
2.350412046e-20
1.980095428e-20
2.419618014e-20
1.661382202e-20
0
0
0
0
0
0
0
1.74307724e-19
6.916464035e-18
8.345139909e-18
7.595735207e-18
0
0
0
0
0
0
0
0
0
0
0
0
0
0
0
0
0
0
0
0
0
0
0
0
0
0
0
0
0
0
0
0
1.604375204e-20
1.57061859e-20
1.476328343e-20
1.316738854e-20
7.890144318e-21
7.32506592e-21
7.456205302e-21
4.205261713e-21
0
0
0
0
0
0
9.428020079e-21
1.665241638e-20
1.096431227e-20
0
0
0
0
0
0
0
1.564454049e-20
5.046057826e-18
8.010892422e-18
7.875021105e-18
3.898516555e-18
0
0
0
0
0
0
0
0
0
0
0
0
0
0
0
0
0
0
0
0
0
0
0
0
0
0
0
0
0
0
0
1.563403314e-20
1.393486465e-20
1.181864367e-20
6.400141849e-21
6.010828054e-21
6.440062824e-21
3.669441217e-21
0
0
0
0
0
0
4.53924924e-21
7.208826925e-21
1.428033481e-20
9.551315948e-21
0
0
0
0
0
0
0
0
2.252399662e-18
7.765196631e-18
8.437284354e-18
7.198996992e-18
1.6778326e-20
0
0
0
0
0
0
0
0
0
0
0
0
0
0
0
0
0
0
0
0
0
0
0
0
0
0
0
0
0
0
1.141873607e-20
5.696177045e-21
4.767226468e-21
5.391361123e-21
6.60084979e-21
3.985620225e-21
1.716503575e-23
0
0
0
0
2.933390421e-23
2.441909698e-21
6.504676734e-21
1.220739731e-20
1.364843345e-20
6.396043154e-21
0
0
0
0
0
0
0
0
2.916052778e-19
7.215540539e-18
8.086540288e-18
4.73246538e-18
0
0
0
0
0
0
0
0
0
0
0
0
0
0
0
0
0
0
0
0
0
0
0
0
0
0
0
0
0
0
0
5.169583257e-21
6.478386539e-21
8.288513047e-21
8.220132393e-21
4.772669146e-21
1.365105168e-22
0
0
0
0
0
0
1.992986542e-21
1.315444235e-20
1.698805475e-20
1.34755178e-20
5.749975989e-21
0
0
0
0
0
0
0
0
1.541190014e-19
6.809550496e-18
7.45615486e-18
1.283762446e-18
1.577222282e-19
0
0
0
0
0
0
0
0
0
0
0
0
0
0
0
0
0
0
0
0
0
0
0
0
0
0
0
0
0
0
1.217568977e-20
1.227300549e-20
1.039555385e-20
5.919814254e-21
2.502265838e-22
0
0
0
0
0
0
4.820791995e-21
1.125213065e-20
1.609366463e-20
1.899195058e-20
1.369921043e-20
5.511113273e-21
0
0
0
0
0
0
0
0
1.592277471e-19
6.837273131e-18
8.08248886e-18
7.563307265e-18
2.094428974e-18
0
0
0
0
0
0
0
0
0
0
0
0
0
0
0
0
0
0
0
0
0
0
0
0
0
0
0
0
0
0
1.38656879e-20
8.709141924e-21
2.360765237e-21
0
0
0
0
0
0
0
8.716148742e-22
7.605049053e-21
1.830737008e-20
2.052357956e-20
1.850823653e-20
1.239880401e-20
1.50835951e-22
0
0
0
0
0
0
0
0
1.642426361e-19
6.813695204e-18
8.190763941e-18
8.219603835e-18
6.445925577e-18
3.937442785e-21
0
0
0
0
0
0
0
0
0
0
0
0
0
0
0
0
0
0
0
0
0
0
0
0
0
0
0
0
0
2.283608501e-21
0
0
0
0
0
0
0
0
0
1.058944105e-20
1.912338542e-20
2.278876604e-20
2.319895302e-20
1.997004696e-20