/*--------------------------------*- C++ -*----------------------------------*\
  =========                 |
  \\      /  F ield         | OpenFOAM: The Open Source CFD Toolbox
   \\    /   O peration     | Website:  https://openfoam.org
    \\  /    A nd           | Version:  10
     \\/     M anipulation  |
\*---------------------------------------------------------------------------*/
FoamFile
{
    format      ascii;
    class       volScalarField;
    location    "0.02498436188";
    object      C2H4;
}
// * * * * * * * * * * * * * * * * * * * * * * * * * * * * * * * * * * * * * //

dimensions      [0 0 0 0 0 0 0];

internalField   nonuniform List<scalar> 
5170
(
2.66711522e-11
2.662593656e-11
2.632428131e-11
2.418455701e-11
1.836064269e-12
5.29901231e-11
5.284918115e-11
5.220851083e-11
4.89345414e-11
3.034525408e-11
7.910264651e-11
7.88685719e-11
7.793426141e-11
7.402747989e-11
5.8642464e-11
1.049069321e-10
1.045908562e-10
1.034392065e-10
9.92868621e-11
8.70481548e-11
1.303784988e-10
1.299949376e-10
1.287091946e-10
1.246208189e-10
1.154897756e-10
1.555195292e-10
1.550942344e-10
1.537605675e-10
1.50012785e-10
1.439543938e-10
1.803621033e-10
1.799163967e-10
1.78617695e-10
1.754830066e-10
1.724585003e-10
2.049595059e-10
2.045232228e-10
2.033362181e-10
2.010413695e-10
2.010288151e-10
2.293532636e-10
2.289523053e-10
2.27962325e-10
2.267195768e-10
2.296910908e-10
2.53586501e-10
2.532387556e-10
2.52504606e-10
2.525509413e-10
2.584716809e-10
2.776839511e-10
2.774074341e-10
2.769765999e-10
2.785506708e-10
2.873730896e-10
3.016489333e-10
3.014675267e-10
3.014413369e-10
3.047117095e-10
3.163665126e-10
3.25488447e-10
3.254271959e-10
3.259274309e-10
3.3103455e-10
3.454228234e-10
3.492113402e-10
3.492957227e-10
3.504309675e-10
3.575176833e-10
3.745143895e-10
3.728224946e-10
3.730826474e-10
3.749533215e-10
3.841465219e-10
4.036070659e-10
3.963200011e-10
3.967900167e-10
3.995322854e-10
4.10924865e-10
4.32631091e-10
4.197076173e-10
4.20426179e-10
4.241444564e-10
4.378007564e-10
4.616109658e-10
4.429919965e-10
4.440050559e-10
4.488678942e-10
4.648243473e-10
4.90514663e-10
4.662255657e-10
4.677255213e-10
4.749687315e-10
5.009942884e-10
5.557593907e-10
5.030059337e-10
5.674715329e-10
1.108134266e-09
4.825150133e-09
2.141054394e-08
2.556936274e-22
4.726771447e-24
5.226943869e-24
5.793855903e-24
5.600099462e-24
3.421337101e-22
0
0
0
0
5.484124707e-23
1.555912965e-23
0
0
1.276636804e-24
0
4.292780451e-23
0
0
2.940392727e-22
0
0
1.788738666e-22
0
2.625994678e-20
0
3.278857492e-19
0
6.444662916e-19
0
4.134468617e-17
0
0
1.49394971e-15
1.408313456e-14
2.206018792e-14
7.968756806e-16
6.497967324e-16
0
5.1476121e-15
3.199957393e-15
0
0
0
0
0
0
0
0
0
0
0
0
0
0
0
0
0
0
0
0
0
0
0
0
0
0
0
0
0
0
0
0
0
0
0
0
0
0
0
0
0
0
0
0
0
0
0
0
0
1.196176756e-09
0
0
0
0
3.508336722e-07
2.381895443e-08
6.087645791e-09
3.573123536e-10
9.159538486e-12
1.033713193e-09
4.566718557e-09
6.282561179e-08
9.26767697e-07
1.234810995e-05
5.317515896e-09
3.522690898e-08
4.675792002e-07
5.644703788e-06
5.442685361e-05
2.383319421e-08
1.57532767e-07
1.79918e-06
1.713956705e-05
0.0001151077268
8.132797007e-08
5.002604831e-07
4.863410945e-06
3.656107875e-05
0.0001754143253
2.28713214e-07
1.283865946e-06
1.060883695e-05
6.279870272e-05
0.0002257690793
5.735909739e-07
2.947264089e-06
2.034536229e-05
9.451868613e-05
0.0002733547274
1.317292906e-06
6.180751001e-06
3.530164905e-05
0.0001321505037
0.0003287856818
2.805856956e-06
1.192348855e-05
5.645546895e-05
0.0001759289312
0.0003908168574
5.65347e-06
2.150203572e-05
8.435015158e-05
0.0002239508369
0.0004509858221
1.087935217e-05
3.639500661e-05
0.0001186846195
0.0002739903981
0.0005053218244
2.017928645e-05
5.836361328e-05
0.0001588505938
0.0003246120051
0.0005547505901
3.678431855e-05
8.875157483e-05
0.0002037166499
0.0003761636689
0.0006034407451
6.522814147e-05
0.0001281771693
0.0002531254914
0.0004292243583
0.0006526648422
0.0001057602214
0.0001758662521
0.0003066532202
0.0004838416911
0.0007025088944
0.0001623991006
0.0002338440636
0.0003657660785
0.0005414368105
0.0007547226595
0.0002323540389
0.0003016642453
0.000431623474
0.0006040652239
0.0008115096281
0.0003176783384
0.0003831780593
0.0005084906368
0.0006753871796
0.0008756598191
0.0004217131855
0.0004814540839
0.000599097566
0.0007583464957
0.0009508049694
0.0005377406585
0.0005921172873
0.0007024163645
0.0008549462201
0.001041240763
0.000663857814
0.0007128524344
0.000812664044
0.0009498485085
0.001114522043
0.0007892532979
0.000827293741
0.0009030159018
0.001002170948
0.00111248289
0.0008720351228
0.0008913448949
0.0009292134756
0.0009764869526
0.00102440109
0.0008507071908
0.0008563770724
0.0008666384712
0.000877381464
0.0008843736797
0.000745933982
0.0007452394598
0.0007425590716
0.0007364417073
0.0007254044892
0.000606318053
0.0006036417027
0.0005971005305
0.0005864496604
0.0005715597972
0.0004683360059
0.0004656408303
0.0004594081193
0.0004496992438
0.0004366699878
0.0003580019735
0.0003558613495
0.0003509001897
0.0003432623827
0.0003331758573
0.0002710350205
0.0002694373247
0.0002657560574
0.0002601248683
0.0002527407743
0.0002037560493
0.0002026065358
0.0001999671389
0.0001959404973
0.0001906737009
0.0001518236922
0.0001510168442
0.0001491657934
0.0001463429008
0.0001426517032
0.0001116746832
0.0001111210413
0.0001098489382
0.0001079063694
0.0001053637958
8.067923847e-05
8.03082967e-05
7.945261628e-05
7.814248931e-05
7.642477148e-05
5.691962384e-05
5.66776186e-05
5.611600029e-05
5.525291058e-05
5.411890703e-05
3.897789822e-05
3.882499089e-05
3.846716169e-05
3.791468963e-05
3.718713055e-05
2.576150057e-05
2.566856409e-05
2.544874581e-05
2.51074331e-05
2.465685063e-05
1.635687321e-05
1.630294754e-05
1.617360786e-05
1.597140659e-05
1.570377907e-05
9.942181986e-06
9.912496324e-06
9.840030725e-06
9.725802428e-06
9.574180284e-06
5.770281205e-06
5.754886302e-06
5.716427041e-06
5.65518265e-06
5.573627312e-06
3.191893238e-06
3.184421763e-06
3.16518446e-06
3.134158941e-06
3.092687896e-06
1.681015858e-06
1.677653786e-06
1.668633476e-06
1.653847894e-06
1.63399351e-06
8.428977839e-07
8.415103224e-07
8.375676587e-07
8.309671502e-07
8.220532152e-07
4.031633649e-07
4.026474616e-07
4.010502879e-07
3.982997194e-07
3.945579316e-07
1.849648799e-07
1.847963786e-07
1.841990831e-07
1.831299514e-07
1.816616146e-07
8.245468215e-08
8.240803433e-08
8.22006144e-08
8.180959912e-08
8.126599177e-08
3.672038132e-08
3.670944406e-08
3.663953542e-08
3.64997491e-08
3.630275852e-08
1.721305525e-08
1.72096039e-08
1.718294802e-08
1.712839746e-08
1.705098242e-08
9.141243977e-09
9.138103342e-09
9.123625364e-09
9.096034639e-09
9.057311028e-09
5.808539562e-09
5.80484637e-09
5.79380619e-09
5.774883521e-09
5.748905211e-09
4.35324266e-09
4.3493468e-09
4.33965257e-09
4.324113792e-09
4.303109582e-09
3.626621761e-09
3.622892032e-09
3.614229397e-09
3.600756297e-09
3.582689969e-09
3.186850136e-09
3.18343965e-09
3.175775504e-09
3.164042727e-09
3.148380243e-09
2.879308749e-09
2.876320133e-09
2.869630745e-09
2.859394485e-09
2.845719722e-09
2.63662087e-09
2.633982233e-09
2.628104771e-09
2.619138335e-09
2.607168734e-09
2.435614475e-09
2.433284903e-09
2.428108916e-09
2.42022211e-09
2.409695296e-09
2.266028426e-09
2.263961638e-09
2.259377869e-09
2.252399001e-09
2.243084006e-09
2.122515824e-09
2.120662127e-09
2.116558097e-09
2.110314653e-09
2.10198132e-09
2.00147683e-09
1.999788858e-09
1.996058855e-09
1.990389604e-09
1.982823282e-09
1.899741395e-09
1.898176887e-09
1.894727072e-09
1.889489715e-09
1.88250199e-09
1.813529306e-09
1.812055688e-09
1.808813137e-09
1.803896347e-09
1.797339122e-09
1.737869766e-09
1.736470101e-09
1.733395021e-09
1.72873582e-09
1.72252258e-09
1.666779877e-09
1.66544286e-09
1.66250734e-09
1.658061595e-09
1.65213525e-09
1.59411284e-09
1.592850755e-09
1.590078233e-09
1.585877628e-09
1.580277122e-09
1.516184197e-09
1.515023925e-09
1.512471924e-09
1.508604664e-09
1.503452147e-09
1.433080746e-09
1.432029266e-09
1.429710613e-09
1.426189602e-09
1.421490653e-09
1.34672929e-09
1.345795412e-09
1.343731066e-09
1.340591614e-09
1.336399364e-09
1.261515576e-09
1.260696857e-09
1.258883529e-09
1.256122853e-09
1.252435067e-09
1.182115602e-09
1.181400029e-09
1.17981257e-09
1.177392289e-09
1.174154838e-09
1.110891267e-09
1.110245762e-09
1.108814438e-09
1.106633791e-09
1.103719283e-09
1.048297415e-09
1.047708017e-09
1.046401793e-09
1.044411579e-09
1.041750421e-09
9.976000561e-10
9.970556527e-10
9.958499387e-10
9.940138353e-10
9.915595912e-10
4.45691464e-05
0.0002035156289
0.0003255597597
0.0003880773601
0.0004221174451
0.0004660836281
0.000532814811
0.0006038013225
0.0006611156046
0.0007052522004
0.0007438859742
0.0007851839716
0.0008277379579
0.0008709151621
0.0009172014077
0.000968509088
0.001026762932
0.001096402991
0.001183059661
0.001236380997
0.001186527871
0.001052549575
0.0008853208082
0.0007153610996
0.0005599627538
0.0004268106822
0.0003256917437
0.0002472994279
0.0001868056905
0.000139949464
0.0001035108611
7.518150849e-05
5.330628178e-05
3.667292087e-05
2.434422508e-05
1.552249638e-05
9.474601344e-06
5.522152223e-06
3.067834393e-06
1.622888517e-06
8.175210816e-07
3.929016934e-07
1.811372932e-07
8.113014508e-08
3.627532148e-08
1.704275158e-08
9.047396489e-09
5.736108642e-09
4.289229757e-09
3.569300565e-09
3.136215325e-09
2.834907615e-09
2.597623144e-09
2.401256961e-09
2.235586632e-09
2.09524753e-09
1.976683453e-09
1.876807652e-09
1.791974914e-09
1.717422894e-09
1.647267866e-09
1.57568318e-09
1.499243259e-09
1.417662833e-09
1.332999331e-09
1.249455166e-09
1.171539656e-09
1.101365955e-09
1.039598414e-09
9.895735076e-10
0.0001048525945
1.386630553e-05
5.9964964e-07
2.26047232e-08
1.703298144e-09
0.0005828975195
0.002553759679
0.0001467915321
4.38358374e-06
2.094610785e-07
0.0007775031564
0.002102601178
0.0002011082015
1.051594467e-05
5.625971872e-07
0.0007921163932
0.00154447006
0.0002316693309
1.839367375e-05
1.009726734e-06
0.0007745513424
0.001343403359
0.001155711325
0.0001146520475
8.105766107e-06
0.000811405251
0.001480080525
0.002198312744
0.0002706728256
2.443674202e-05
0.0008995833714
0.001691633992
0.002687389385
0.0003896463061
4.372088626e-05
0.0009776502826
0.001733632389
0.002537383907
0.0004261489983
5.631119272e-05
0.001017416887
0.001655986208
0.002212904483
0.0006833316209
9.899024718e-05
0.001034716853
0.001578688291
0.002038794196
0.001111665592
0.0001806613703
0.001050224283
0.001547334705
0.002020881224
0.001572718025
0.0002803356238
0.00107734401
0.0015624916
0.002079465892
0.00198705386
0.0003819958597
0.001106218361
0.001563298015
0.002032760526
0.002035436708
0.0004576489929
0.001136658944
0.001570294108
0.002020608164
0.00216102629
0.0007060223815
0.001172092548
0.001588868055
0.002027302622
0.00223955055
0.0009618347563
0.00121388302
0.001615948673
0.002040771415
0.002291597632
0.001242121787
0.001262284916
0.001649585716
0.002062175047
0.002329089719
0.00147028244
0.00132221319
0.001695964615
0.00209433068
0.002331545079
0.00142432101
0.001401534223
0.001763843108
0.002123867481
0.002177485839
0.000955605365
0.00142219462
0.001711333853
0.001971799603
0.001988764334
0.00066925059
0.001298153287
0.001428349859
0.00148033216
0.00139210953
0.001071984341
0.001096586063
0.001117393409
0.001074737042
0.0009604843543
0.0007837657705
0.000890532025
0.000863484008
0.0007979520047
0.0006998996166
0.0005819710172
0.0007049457662
0.0006660301023
0.0006058540582
0.0005305171771
0.0004482030483
0.0005469041289
0.0005117020542
0.0004638799576
0.0004081632152
0.0003494617943
0.0004154876568
0.0003879919678
0.0003526428083
0.0003127233161
0.0002712943651
0.000317098476
0.0002968000889
0.0002711789783
0.000242523433
0.000212849552
0.0002410671964
0.0002264644581
0.0002081144159
0.0001876010927
0.0001662823849
0.0001824081709
0.0001720557196
0.0001590029566
0.0001443470154
0.0001290186674
0.0001369240032
0.0001296883114
0.0001204804859
0.0001100623945
9.907901821e-05
0.0001014901057
9.652097409e-05
9.01041027e-05
8.276872149e-05
7.496380381e-05
7.387942708e-05
7.053995348e-05
6.614038485e-05
6.104766075e-05
5.557417722e-05
5.250398364e-05
5.031870296e-05
4.736518711e-05
4.389659539e-05
4.01291564e-05
3.620649568e-05
3.482338746e-05
3.289381758e-05
3.059059472e-05
2.806161285e-05
2.40934436e-05
2.325345184e-05
2.203505645e-05
2.055401193e-05
1.890943513e-05
1.54017351e-05
1.491602515e-05
1.417711494e-05
1.326042753e-05
1.223049689e-05
9.425871441e-06
9.160401027e-06
8.732153826e-06
8.188598725e-06
7.570285679e-06
5.508962883e-06
5.372801962e-06
5.13653599e-06
4.828863387e-06
4.474242698e-06
3.069311784e-06
3.004328924e-06
2.88064338e-06
2.714854002e-06
2.521068377e-06
1.628494906e-06
1.599964018e-06
1.53869163e-06
1.453829283e-06
1.353133421e-06
8.228324574e-07
8.115052458e-07
7.828403302e-07
7.416347231e-07
6.919404604e-07
3.966461822e-07
3.926986063e-07
3.800426273e-07
3.610634225e-07
3.377710004e-07
1.833793904e-07
1.822415068e-07
1.769547008e-07
1.686432011e-07
1.58252229e-07
8.231915378e-08
8.208793389e-08
7.997814311e-08
7.649250157e-08
7.205271446e-08
3.684109985e-08
3.68272429e-08
3.600099788e-08
3.457597548e-08
3.273195296e-08
1.728204382e-08
1.728349895e-08
1.694603468e-08
1.635638048e-08
1.558803521e-08
9.132730804e-09
9.1138767e-09
8.956071393e-09
8.691735165e-09
8.349700255e-09
5.755789564e-09
5.721592771e-09
5.627339002e-09
5.486287371e-09
5.309697728e-09
4.283656509e-09
4.24401126e-09
4.175484486e-09
4.08356497e-09
3.973189231e-09
3.55562485e-09
3.516692536e-09
3.461327217e-09
3.39213787e-09
3.31120002e-09
3.121003518e-09
3.08536471e-09
3.038482701e-09
2.98173236e-09
2.916362481e-09
2.820449383e-09
2.788659426e-09
2.748102023e-09
2.699719102e-09
2.644376149e-09
2.584474843e-09
2.556349368e-09
2.520971754e-09
2.47904239e-09
2.431211875e-09
2.389437101e-09
2.364535489e-09
2.333467138e-09
2.296773872e-09
2.254968566e-09
2.224949148e-09
2.202790216e-09
2.175294763e-09
2.142896609e-09
2.106000686e-09
2.085577253e-09
2.065643263e-09
2.041046134e-09
2.012126748e-09
1.979215884e-09
1.967750577e-09
1.949554454e-09
1.92724705e-09
1.901097875e-09
1.871374108e-09
1.868409903e-09
1.851521092e-09
1.830968048e-09
1.80696399e-09
1.779727174e-09
1.783963964e-09
1.768047375e-09
1.748816902e-09
1.72644477e-09
1.701097675e-09
1.709735764e-09
1.694588681e-09
1.676385572e-09
1.655239527e-09
1.631305829e-09
1.639908286e-09
1.625450886e-09
1.6081065e-09
1.587988954e-09
1.565245853e-09
1.568761537e-09
1.555130842e-09
1.538757382e-09
1.519772684e-09
1.498319817e-09
1.492960444e-09
1.480415558e-09
1.465255593e-09
1.447574744e-09
1.427522023e-09
1.412029804e-09
1.400665808e-09
1.386807374e-09
1.370594172e-09
1.35216964e-09
1.328070266e-09
1.317981688e-09
1.30557382e-09
1.290992597e-09
1.274380054e-09
1.245189023e-09
1.236347356e-09
1.225392533e-09
1.212474478e-09
1.197695619e-09
1.167819371e-09
1.160042544e-09
1.150363778e-09
1.138865474e-09
1.125665056e-09
1.098015436e-09
1.09100809e-09
1.082276827e-09
1.071911134e-09
1.060013257e-09
1.036519746e-09
1.030118412e-09
1.022164004e-09
1.012753552e-09
1.001977717e-09
9.867229642e-10
9.808222993e-10
9.735130282e-10
9.648882094e-10
9.550334299e-10
6.020997878e-10
6.507767196e-11
1.377820974e-11
8.708555707e-12
7.416971743e-12
6.728126248e-12
6.304078915e-12
6.055679223e-12
5.924393113e-12
5.862348723e-12
5.836064362e-12
5.825592196e-12
5.82128776e-12
5.819013608e-12
5.817222781e-12
5.816122416e-12
5.815698854e-12
5.816039668e-12
5.816806574e-12
5.817162258e-12
5.817131606e-12
5.816929885e-12
5.816678352e-12
5.816422545e-12
5.816179225e-12
5.815959378e-12
5.815760174e-12
5.815575231e-12
5.815407874e-12
5.815262759e-12
5.815132744e-12
5.815010149e-12
5.814893611e-12
5.814785273e-12
5.814693631e-12
5.814615617e-12
5.814548556e-12
5.814490571e-12
5.814442766e-12
5.814402126e-12
5.814367549e-12
5.814339837e-12
5.814314798e-12
5.814288921e-12
5.814269135e-12
5.814268471e-12
5.814279588e-12
5.814298762e-12
5.814320939e-12
5.814347555e-12
5.814376585e-12
5.81441037e-12
5.814444772e-12
5.814481426e-12
5.81444e-12
5.81363183e-12
5.807490042e-12
5.776148158e-12
5.658767115e-12
5.508852398e-12
3.654300943e-08
4.774562043e-09
6.280051886e-10
1.167324743e-10
4.217337177e-11
2.35943371e-11
1.668359647e-11
1.354995824e-11
1.206525412e-11
1.138635765e-11
1.10975711e-11
1.098456365e-11
1.094333383e-11
1.092763893e-11
1.091912918e-11
1.091181524e-11
1.091020379e-11
1.091470974e-11
1.091828581e-11
1.092001423e-11
1.092047367e-11
1.092036303e-11
1.09200728e-11
1.091974599e-11
1.091947471e-11
1.091925259e-11
1.091902378e-11
1.091881712e-11
1.091871286e-11
1.091867196e-11
1.091863572e-11
1.091857819e-11
1.091853184e-11
1.091856378e-11
1.091867743e-11
1.091879728e-11
1.091891799e-11
1.091901876e-11
1.091918065e-11
1.091930052e-11
1.091949402e-11
1.09197406e-11
1.091992418e-11
1.092012352e-11
1.092026778e-11
1.092047099e-11
1.092065898e-11
1.092091477e-11
1.092117023e-11
1.092140773e-11
1.092162653e-11
1.092187367e-11
1.0922076e-11
1.092234264e-11
1.092245396e-11
1.092213765e-11
1.092013382e-11
1.091578418e-11
1.092901963e-11
1.096956227e-11
1.30262365e-07
4.110970435e-08
6.069651587e-09
9.22465111e-10
2.386078413e-10
9.581285208e-11
5.006338839e-11
3.069767783e-11
2.14907816e-11
1.713703101e-11
1.519437133e-11
1.439832146e-11
1.410227047e-11
1.400055529e-11
1.396382292e-11
1.394396208e-11
1.394003801e-11
1.395031839e-11
1.395761542e-11
1.396125482e-11
1.396247548e-11
1.396256756e-11
1.396228044e-11
1.396192859e-11
1.396162628e-11
1.396138434e-11
1.396120856e-11
1.396109339e-11
1.396104065e-11
1.396105862e-11
1.396113005e-11
1.396124141e-11
1.396142404e-11
1.396167389e-11
1.396195876e-11
1.396227807e-11
1.396264233e-11
1.396300287e-11
1.396338096e-11
1.396373034e-11
1.396414852e-11
1.396458998e-11
1.396502541e-11
1.396550304e-11
1.396595587e-11
1.396645399e-11
1.396691303e-11
1.39674356e-11
1.396792564e-11
1.396843742e-11
1.396891551e-11
1.396945326e-11
1.396991163e-11
1.397047819e-11
1.397096381e-11
1.397191429e-11
1.397515049e-11
1.39907388e-11
1.404984957e-11
1.412239415e-11
3.164926953e-07
2.120214507e-07
6.57520425e-08
8.598245326e-09
1.711529648e-09
5.569948805e-10
2.406878756e-10
1.17351933e-10
6.120744844e-11
3.500797209e-11
2.318998754e-11
1.821971779e-11
1.631465718e-11
1.565555939e-11
1.544636818e-11
1.537746889e-11
1.53642411e-11
1.537905286e-11
1.539059841e-11
1.539711736e-11
1.540018621e-11
1.540156761e-11
1.540230329e-11
1.540284542e-11
1.540335938e-11
1.540387396e-11
1.540440391e-11
1.540495633e-11
1.54055265e-11
1.540612147e-11
1.540673788e-11
1.540736986e-11
1.540803346e-11
1.540872151e-11
1.540942062e-11
1.541014247e-11
1.541088265e-11
1.541160825e-11
1.541232405e-11
1.541302144e-11
1.541373531e-11
1.54144441e-11
1.541515011e-11
1.541586914e-11
1.541657574e-11
1.541729827e-11
1.541799166e-11
1.541870116e-11
1.541937442e-11
1.542006806e-11
1.54207327e-11
1.542142853e-11
1.542206278e-11
1.54227917e-11
1.542357908e-11
1.542525731e-11
1.54302426e-11
1.544773185e-11
1.549502704e-11
1.554329306e-11
1.083198356e-06
6.164745102e-07
4.242425135e-07
8.209077837e-08
1.256023881e-08
3.167816912e-09
1.15830076e-09
4.979166043e-10
2.251754084e-10
1.042516976e-10
5.106269687e-11
2.88384706e-11
2.025935143e-11
1.723220138e-11
1.6267266e-11
1.598546925e-11
1.592331863e-11
1.593319641e-11
1.594727784e-11
1.595668404e-11
1.596198018e-11
1.596506779e-11
1.596719765e-11
1.596894146e-11
1.597051245e-11
1.597197893e-11
1.597336994e-11
1.597470091e-11
1.597598056e-11
1.597721877e-11
1.597841871e-11
1.597958382e-11
1.598072378e-11
1.59818393e-11
1.598292771e-11
1.598399749e-11
1.598504622e-11
1.598606119e-11
1.598704356e-11
1.59879969e-11
1.59889314e-11
1.598983816e-11
1.599072337e-11
1.599159275e-11
1.599243922e-11
1.599327468e-11
1.599408412e-11
1.599487954e-11
1.599564266e-11
1.599640336e-11
1.599713822e-11
1.599787636e-11
1.599857918e-11
1.599934833e-11
1.600026633e-11
1.600204872e-11
1.600655942e-11
1.601905461e-11
1.604580557e-11
1.606981389e-11
1.724550795e-06
9.540391657e-07
9.818249894e-07
4.63429775e-07
7.314626866e-08
1.360582348e-08
4.028599487e-09
1.539740747e-09
6.427433965e-10
2.725852502e-10
1.163866691e-10
5.272073087e-11
2.839356235e-11
1.984004812e-11
1.71087195e-11
1.632085643e-11
1.613180427e-11
1.61172759e-11
1.612959876e-11
1.614113252e-11
1.614854529e-11
1.615325799e-11
1.615664088e-11
1.61593975e-11
1.616181587e-11
1.616401315e-11
1.61660444e-11
1.616793986e-11
1.616971994e-11
1.617140225e-11
1.617299694e-11
1.617451375e-11
1.617596273e-11
1.617735014e-11
1.617867907e-11
1.617995676e-11
1.618118538e-11
1.618236422e-11
1.618349613e-11
1.618458589e-11
1.618563809e-11
1.618665055e-11
1.618762775e-11
1.618857126e-11
1.61894796e-11
1.619035983e-11
1.619121156e-11
1.619203857e-11
1.619283421e-11
1.61936085e-11
1.619435445e-11
1.619508814e-11
1.619580377e-11
1.619657576e-11
1.619754212e-11
1.619925723e-11
1.620297746e-11
1.621121354e-11
1.622533839e-11
1.623636784e-11
2.839259873e-06
1.003881248e-06
1.365871899e-06
1.264944955e-06
3.802859625e-07
5.640293703e-08
1.237585508e-08
4.02681552e-09
1.553044136e-09
6.226204357e-10
2.484474146e-10
9.999927819e-11
4.41753574e-11
2.471322422e-11
1.850452215e-11
1.670316559e-11
1.62486311e-11
1.617543562e-11
1.61781652e-11
1.619032311e-11
1.619971039e-11
1.620608019e-11
1.621069154e-11
1.62143689e-11
1.62175062e-11
1.6220286e-11
1.622280123e-11
1.622510613e-11
1.622723738e-11
1.622922144e-11
1.623107768e-11
1.623282214e-11
1.623446785e-11
1.623602534e-11
1.623750238e-11
1.623890679e-11
1.62402442e-11
1.624151896e-11
1.624273566e-11
1.624389912e-11
1.624501357e-11
1.62460808e-11
1.624710472e-11
1.624808745e-11
1.624902962e-11
1.624993433e-11
1.625080346e-11
1.625164158e-11
1.625244875e-11
1.625322766e-11
1.625397697e-11
1.625470777e-11
1.625543176e-11
1.62562216e-11
1.625724524e-11
1.625897996e-11
1.626231385e-11
1.626842037e-11
1.627700223e-11
1.628255397e-11
4.305094319e-06
7.053891602e-07
1.427430105e-06
1.964433291e-06
1.280798973e-06
2.495012522e-07
3.990063259e-08
1.030749916e-08
3.531544358e-09
1.330850752e-09
5.048572239e-10
1.891322612e-10
7.320392643e-11
3.346220568e-11
2.092986489e-11
1.731776304e-11
1.638852254e-11
1.620589183e-11
1.618682066e-11
1.619687121e-11
1.620777051e-11
1.6215835e-11
1.622177519e-11
1.622644151e-11
1.623032192e-11
1.623367422e-11
1.623664319e-11
1.62393169e-11
1.624175356e-11
1.624399374e-11
1.62460673e-11
1.624799724e-11
1.62498016e-11
1.625149524e-11
1.62530898e-11
1.62545954e-11
1.625602031e-11
1.625737155e-11
1.625865531e-11
1.625987712e-11
1.626104173e-11
1.62621526e-11
1.626321383e-11
1.626422915e-11
1.626520115e-11
1.626613185e-11
1.62670222e-11
1.626787556e-11
1.626869454e-11
1.626948238e-11
1.627024234e-11
1.627098619e-11
1.627173658e-11
1.627257676e-11
1.627370248e-11
1.627557133e-11
1.627887053e-11
1.628418281e-11
1.629066011e-11
1.629398636e-11
8.904884448e-06
7.958042531e-07
1.351781141e-06
2.42135666e-06
2.548471189e-06
9.992849811e-07
1.45702115e-07
2.761451375e-08
7.963985812e-09
2.742448064e-09
9.813696928e-10
3.469380455e-10
1.227653108e-10
4.799758036e-11
2.488356638e-11
1.830742497e-11
1.660780368e-11
1.624577213e-11
1.618814557e-11
1.619196543e-11
1.620335778e-11
1.621293588e-11
1.622026063e-11
1.622602306e-11
1.623074347e-11
1.623473801e-11
1.623820457e-11
1.624127269e-11
1.624402911e-11
1.624653327e-11
1.624882819e-11
1.625094563e-11
1.625291015e-11
1.625474149e-11
1.625645521e-11
1.625806438e-11
1.625957974e-11
1.626101038e-11
1.626236406e-11
1.626364747e-11
1.626486636e-11
1.626602552e-11
1.626712949e-11
1.626818243e-11
1.62691882e-11
1.627015016e-11
1.627107018e-11
1.627195066e-11
1.627279364e-11
1.627360284e-11
1.627438463e-11
1.627515555e-11
1.627594907e-11
1.627686457e-11
1.627812617e-11
1.628018358e-11
1.628359711e-11
1.628865999e-11
1.629430406e-11
1.629655097e-11
1.958168763e-05
1.521766131e-06
1.021414897e-06
2.718087497e-06
3.551984944e-06
2.544868614e-06
5.380547047e-07
7.552603054e-08
1.741838279e-08
5.334298845e-09
1.783876228e-09
5.979481624e-10
1.984769416e-10
6.963353864e-11
3.071004509e-11
1.977830133e-11
1.694408494e-11
1.631240273e-11
1.61934862e-11
1.618536673e-11
1.619576042e-11
1.620645388e-11
1.621510065e-11
1.622201669e-11
1.622766874e-11
1.623239215e-11
1.623642423e-11
1.62399355e-11
1.624304629e-11
1.624584004e-11
1.624837606e-11
1.625069702e-11
1.625283538e-11
1.625481638e-11
1.625666e-11
1.625838254e-11
1.625999743e-11
1.626151581e-11
1.626294718e-11
1.626429968e-11
1.626558029e-11
1.626679501e-11
1.626794919e-11
1.626904754e-11
1.627009415e-11
1.627109283e-11
1.627204658e-11
1.627295876e-11
1.627383204e-11
1.627467051e-11
1.627548175e-11
1.62762874e-11
1.627713278e-11
1.627813804e-11
1.62795521e-11
1.62818068e-11
1.628536317e-11
1.629033442e-11
1.62955454e-11
1.629706215e-11
3.490378574e-05
3.585951224e-06
7.957627213e-07
2.963638795e-06
4.619630045e-06
4.498469996e-06
1.53642803e-06
2.135574249e-07
3.818973216e-08
9.976174241e-09
3.038858347e-09
9.556725224e-10
2.997694765e-10
9.759946297e-11
3.821484969e-11
2.172493071e-11
1.741463948e-11
1.641626523e-11
1.620800661e-11
1.618026527e-11
1.618762204e-11
1.619887634e-11
1.620870647e-11
1.621678825e-11
1.622344751e-11
1.622899122e-11
1.623366997e-11
1.623768679e-11
1.624119707e-11
1.6244313e-11
1.624711437e-11
1.624965777e-11
1.625198523e-11
1.625412842e-11
1.625611235e-11
1.625795695e-11
1.625967867e-11
1.626129102e-11
1.626280545e-11
1.626423173e-11
1.626557813e-11
1.626685183e-11
1.626805895e-11
1.626920498e-11
1.627029445e-11
1.62713318e-11
1.627232058e-11
1.627326471e-11
1.627416812e-11
1.627503679e-11
1.627588073e-11
1.627672727e-11
1.627763378e-11
1.627874049e-11
1.6280313e-11
1.628275482e-11
1.628643798e-11
1.629134074e-11
1.629623516e-11
1.629711966e-11
5.602047064e-05
5.538697384e-06
7.645371281e-07
2.871421234e-06
5.825676466e-06
6.655972352e-06
3.577127821e-06
6.017585481e-07
9.149187841e-08
1.915643347e-08
5.03741409e-09
1.441438393e-09
4.226027131e-10
1.294565432e-10
4.670623139e-11
2.402195114e-11
1.801348897e-11
1.656349328e-11
1.62352133e-11
1.617826984e-11
1.617987034e-11
1.619092739e-11
1.620171823e-11
1.621092173e-11
1.621862875e-11
1.622507211e-11
1.623048298e-11
1.623507818e-11
1.623904258e-11
1.624251966e-11
1.624561399e-11
1.624840004e-11
1.625093176e-11
1.625324897e-11
1.625538245e-11
1.62573565e-11
1.625919086e-11
1.626090188e-11
1.626250316e-11
1.626400628e-11
1.626542095e-11
1.626675549e-11
1.626801694e-11
1.626921159e-11
1.627034467e-11
1.627142151e-11
1.627244611e-11
1.627342306e-11
1.627435719e-11
1.627525643e-11
1.627613472e-11
1.627702686e-11
1.627800395e-11
1.627922278e-11
1.628095295e-11
1.628356465e-11
1.628734809e-11
1.629217173e-11
1.629678618e-11
1.629705499e-11
6.837667523e-05
8.063358066e-06
9.457526154e-07
2.028223416e-06
7.066070517e-06
9.238572155e-06
6.546561468e-06
1.578251344e-06
2.144838903e-07
3.693765811e-08
8.027982309e-09
2.023309517e-09
5.478329198e-10
1.595221508e-10
5.483599426e-11
2.639313869e-11
1.869514939e-11
1.674973247e-11
1.627638662e-11
1.618052066e-11
1.617321813e-11
1.618308807e-11
1.619449095e-11
1.620467806e-11
1.621339846e-11
1.622077246e-11
1.622697897e-11
1.623222088e-11
1.62366975e-11
1.624057921e-11
1.624399722e-11
1.624704742e-11
1.624979872e-11
1.62523014e-11
1.625459326e-11
1.625670379e-11
1.625865644e-11
1.626047068e-11
1.626216239e-11
1.626374514e-11
1.626523016e-11
1.626662701e-11
1.626794382e-11
1.62691878e-11
1.627036516e-11
1.627148194e-11
1.627254273e-11
1.627355293e-11
1.62745184e-11
1.627544968e-11
1.627636554e-11
1.627730839e-11
1.627836333e-11
1.627970071e-11
1.628158417e-11
1.628434663e-11
1.628820243e-11
1.629293055e-11
1.62972771e-11
1.629687488e-11
0.0001129675744
1.473604126e-05
1.208825064e-06
1.433750956e-06
8.769302437e-06
1.243654476e-05
1.043911881e-05
3.64393617e-06
4.971161268e-07
7.393134876e-08
1.299107891e-08
2.785131528e-09
6.822894307e-10
1.883554988e-10
6.263035823e-11
2.880712545e-11
1.943816842e-11
1.696666779e-11
1.632983021e-11
1.618739742e-11
1.616836642e-11
1.617598485e-11
1.618752369e-11
1.619842931e-11
1.620801119e-11
1.621625076e-11
1.6223251e-11
1.622917224e-11
1.623420381e-11
1.623852874e-11
1.624230018e-11
1.624563559e-11
1.624862101e-11
1.625131918e-11
1.625377662e-11
1.625602899e-11
1.625810424e-11
1.626002504e-11
1.626180982e-11
1.626347414e-11
1.626503087e-11
1.626649102e-11
1.626786395e-11
1.626915795e-11
1.627038011e-11
1.627153705e-11
1.627263419e-11
1.627367785e-11
1.627467541e-11
1.627564081e-11
1.627659824e-11
1.627759774e-11
1.627873714e-11
1.6280196e-11
1.628222673e-11
1.628512164e-11
1.628902459e-11
1.629364345e-11
1.629772338e-11
1.629657096e-11
0.0001679064223
2.45865839e-05
3.129180681e-06
1.654471042e-06
1.158936894e-05
1.662668307e-05
1.472453181e-05
7.000869724e-06
1.144985366e-06
1.568542312e-07
2.133488025e-08
3.67666066e-09
7.973085307e-10
2.099898353e-10
6.889394398e-11
3.095091278e-11
2.014684321e-11
1.718427862e-11
1.638767874e-11
1.619765422e-11
1.616570945e-11
1.617028898e-11
1.618144638e-11
1.619269471e-11
1.620286049e-11
1.621177937e-11
1.621947124e-11
1.622603412e-11
1.623162107e-11
1.623640568e-11
1.624054969e-11
1.624418644e-11
1.624741791e-11
1.625031987e-11
1.625294859e-11
1.625534674e-11
1.625754733e-11
1.625957654e-11
1.626145571e-11
1.626320244e-11
1.626483141e-11
1.626635524e-11
1.626778457e-11
1.62691287e-11
1.627039561e-11
1.627159256e-11
1.627272603e-11
1.627380364e-11
1.627483466e-11
1.6275837e-11
1.627684084e-11
1.627790392e-11
1.627913427e-11
1.628071505e-11
1.628288496e-11
1.628589477e-11
1.628982321e-11
1.629432351e-11
1.62981427e-11
1.629626299e-11
0.0002363767601
3.343885384e-05
5.131704492e-06
2.344226606e-06
1.615607956e-05
2.239986609e-05
1.940886298e-05
1.071967214e-05
2.409131153e-06
3.441705003e-07
3.706524158e-08
4.843070177e-09
9.001434759e-10
2.272071384e-10
7.433022316e-11
3.288681787e-11
2.079477281e-11
1.738506862e-11
1.644380486e-11
1.620990056e-11
1.616533653e-11
1.616652108e-11
1.61768425e-11
1.61880102e-11
1.619839726e-11
1.620770855e-11
1.621588983e-11
1.622297192e-11
1.622905305e-11
1.623427424e-11
1.623878698e-11
1.624272855e-11
1.624621102e-11
1.624932099e-11
1.625212395e-11
1.625466968e-11
1.625699644e-11
1.625913433e-11
1.626110774e-11
1.626293658e-11
1.626463744e-11
1.626622457e-11
1.626770981e-11
1.626910351e-11