/*--------------------------------*- C++ -*----------------------------------*\
  =========                 |
  \\      /  F ield         | OpenFOAM: The Open Source CFD Toolbox
   \\    /   O peration     | Website:  https://openfoam.org
    \\  /    A nd           | Version:  10
     \\/     M anipulation  |
\*---------------------------------------------------------------------------*/
FoamFile
{
    format      ascii;
    class       volScalarField;
    location    "0.02498436188";
    object      C2H4_0;
}
// * * * * * * * * * * * * * * * * * * * * * * * * * * * * * * * * * * * * * //

dimensions      [0 0 0 0 0 0 0];

internalField   nonuniform List<scalar> 
5170
(
2.604175251e-11
2.599575752e-11
2.569286088e-11
2.355127711e-11
1.835803328e-12
5.236284935e-11
5.221974022e-11
5.157730048e-11
4.829546774e-11
2.970428561e-11
7.848145728e-11
7.824518197e-11
7.730922197e-11
7.340088243e-11
5.799694957e-11
1.042701771e-10
1.03951991e-10
1.027987907e-10
9.864746525e-11
8.640625629e-11
1.297204438e-10
1.293347746e-10
1.280477077e-10
1.239600484e-10
1.148302777e-10
1.548418448e-10
1.544134827e-10
1.530776207e-10
1.493321913e-10
1.432726511e-10
1.796711659e-10
1.7922195e-10
1.77919701e-10
1.74786602e-10
1.717581117e-10
2.042617996e-10
2.038223671e-10
2.026321068e-10
2.003344191e-10
2.003165069e-10
2.286555253e-10
2.282505659e-10
2.272566732e-10
2.260104374e-10
2.289750703e-10
2.528933687e-10
2.525408706e-10
2.517994463e-10
2.518455542e-10
2.577588312e-10
2.769963677e-10
2.767158327e-10
2.762788012e-10
2.778506047e-10
2.866657966e-10
3.009670499e-10
3.007823001e-10
3.007549483e-10
3.040182259e-10
3.156654928e-10
3.248136568e-10
3.24748524e-10
3.252482503e-10
3.30348848e-10
3.447285705e-10
3.485428403e-10
3.486226952e-10
3.497551559e-10
3.568386668e-10
3.738253896e-10
3.721579398e-10
3.724136687e-10
3.742797777e-10
3.834715342e-10
4.029206973e-10
3.956566648e-10
3.961230135e-10
3.988605209e-10
4.102507895e-10
4.319454588e-10
4.190434402e-10
4.197590075e-10
4.234738866e-10
4.371252571e-10
4.609240863e-10
4.423257331e-10
4.433357188e-10
4.481970962e-10
4.641472444e-10
4.898247758e-10
4.655566846e-10
4.670535186e-10
4.74295898e-10
5.003166189e-10
5.550629667e-10
5.023379486e-10
5.667898027e-10
1.107382706e-09
4.82426421e-09
2.14060571e-08
3.059375856e-22
0
0
0
0
3.913337518e-22
0
0
0
0
8.005639785e-23
1.991463057e-23
0
0
0
0
5.169155845e-23
0
4.593624808e-24
0
0
0
0
0
0
0
0
0
0
4.278544902e-17
0
0
0
1.676698282e-15
1.777062007e-14
2.632812398e-14
8.694076018e-16
9.844496157e-16
0
5.341107267e-15
2.697267839e-15
0
0
0
0
0
1.256266531e-15
0
0
0
0
0
0
0
0
0
0
0
0
0
0
0
0
0
0
0
0
0
0
0
0
0
0
0
0
0
0
0
0
0
0
0
0
0
0
0
0
0
0
0
1.17224649e-09
0
0
0
0
3.507520791e-07
2.382582575e-08
6.173937477e-09
3.583395565e-10
9.277273603e-12
1.033227909e-09
4.566638705e-09
6.28235224e-08
9.265867357e-07
1.234250199e-05
5.321503672e-09
3.525068714e-08
4.676282719e-07
5.64430447e-06
5.442685814e-05
2.382728313e-08
1.575829705e-07
1.799521424e-06
1.713708045e-05
0.0001151243526
8.121287421e-08
4.992177073e-07
4.854451128e-06
3.652255618e-05
0.0001753357524
2.286871585e-07
1.282662292e-06
1.059827821e-05
6.27522323e-05
0.0002256590622
5.74190691e-07
2.950867596e-06
2.035828005e-05
9.451157443e-05
0.0002732892847
1.317775154e-06
6.184996796e-06
3.531968904e-05
0.0001321790198
0.0003288420307
2.804710186e-06
1.191966625e-05
5.645445551e-05
0.0001759663292
0.0003909237785
5.650595098e-06
2.148995551e-05
8.433253245e-05
0.0002239727435
0.0004510525338
1.088005544e-05
3.6394453e-05
0.0001186926324
0.0002740284179
0.0005053703925
2.018916278e-05
5.839731422e-05
0.0001589161097
0.000324685595
0.0005548057919
3.69006854e-05
8.887613385e-05
0.0002038509834
0.0003762921336
0.0006035578069
6.531067223e-05
0.0001282611276
0.0002532200033
0.0004293075997
0.0006527330634
0.000105744054
0.0001758602213
0.0003066285752
0.0004837995805
0.0007024550155
0.0001622934882
0.0002337279993
0.0003656252239
0.0005412777848
0.0007545546259
0.0002321172484
0.0003014654928
0.0004314570922
0.0006039174265
0.0008113646097
0.000317661326
0.0003831729747
0.0005084834116
0.0006753555942
0.0008755894887
0.0004217814599
0.0004815142361
0.0005991693406
0.0007584702746
0.0009510066953
0.0005377192427
0.0005921457697
0.000702522156
0.0008551254153
0.001041542392
0.000663861862
0.0007127685309
0.0008122701643
0.0009487490241
0.001112178355
0.0007888864806
0.0008265048707
0.0009011839732
0.0009985676948
0.001106385777
0.0008690591066
0.0008877916368
0.0009244601151
0.0009700571129
0.001015954754
0.0008446929777
0.0008500429127
0.0008596492153
0.0008695070379
0.0008755024578
0.000738722895
0.0007379096373
0.0007349914636
0.0007285727791
0.0007172358676
0.0005995718735
0.0005968807729
0.0005903227752
0.0005796755911
0.0005648277147
0.0004629733701
0.0004602957908
0.0004541087796
0.0004444762388
0.0004315586127
0.0003539796069
0.0003518585389
0.0003469457546
0.0003393859713
0.0003294069315
0.000268104323
0.0002665227329
0.000262880496
0.0002573105851
0.0002500084322
0.0002016330297
0.0002004953976
0.0001978842026
0.0001939012191
0.000188692053
0.0001502751965
0.0001494767544
0.000147645305
0.0001448525588
0.0001412009536
0.0001105351
0.0001099872671
0.0001087286306
0.0001068066676
0.0001042911005
7.983644443e-05
7.946948565e-05
7.862296854e-05
7.732685834e-05
7.562749038e-05
5.629773819e-05
5.605841651e-05
5.550298829e-05
5.464937823e-05
5.352780345e-05
3.852430889e-05
3.837319431e-05
3.801950732e-05
3.747339179e-05
3.675418777e-05
2.543794289e-05
2.534617727e-05
2.512907934e-05
2.479196103e-05
2.434690782e-05
1.613336807e-05
1.608018074e-05
1.595257669e-05
1.575306823e-05
1.548899615e-05
9.793830182e-06
9.764591897e-06
9.693190087e-06
9.580623647e-06
9.431203457e-06
5.676202131e-06
5.661063892e-06
5.62322564e-06
5.562959562e-06
5.482703537e-06
3.135126491e-06
3.127792856e-06
3.108898372e-06
3.078417907e-06
3.037673197e-06
1.648523684e-06
1.645231047e-06
1.636387832e-06
1.621887379e-06
1.602414855e-06
8.252938006e-07
8.239382547e-07
8.200806399e-07
8.136195764e-07
8.048931518e-07
3.941467904e-07
3.936441116e-07
3.920845844e-07
3.893972508e-07
3.85740985e-07
1.806007346e-07
1.804370334e-07
1.798548967e-07
1.788121281e-07
1.773797489e-07
8.045730955e-08
8.041209366e-08
8.021014176e-08
7.982913761e-08
7.929934811e-08
3.585426845e-08
3.584360585e-08
3.577539741e-08
3.56390123e-08
3.544680859e-08
1.68556623e-08
1.685217666e-08
1.682593633e-08
1.677238717e-08
1.669643344e-08
8.999665221e-09
8.996455943e-09
8.982032812e-09
8.954681702e-09
8.916347614e-09
5.753646714e-09
5.749908216e-09
5.73885106e-09
5.719964906e-09
5.694058151e-09
4.331631675e-09
4.327714362e-09
4.318003531e-09
4.302463059e-09
4.281465176e-09
3.617430744e-09
3.613691961e-09
3.605020546e-09
3.591543301e-09
3.573474115e-09
3.182382726e-09
3.178968627e-09
3.171303131e-09
3.159570886e-09
3.143908869e-09
2.876637884e-09
2.873649258e-09
2.866972124e-09
2.856737643e-09
2.843065503e-09
2.634808593e-09
2.632169951e-09
2.626293407e-09
2.617328955e-09
2.605362549e-09
2.434288737e-09
2.431959362e-09
2.426784208e-09
2.418899006e-09
2.408374659e-09
2.265042876e-09
2.262976304e-09
2.258393231e-09
2.25141558e-09
2.242102304e-09
2.121798173e-09
2.119944502e-09
2.115840677e-09
2.1095977e-09
2.101265318e-09
2.000986768e-09
1.999298555e-09
1.99556818e-09
1.989898504e-09
1.982331707e-09
1.899452509e-09
1.897887422e-09
1.894436487e-09
1.88919757e-09
1.882207858e-09
1.813404853e-09
1.811930336e-09
1.808685956e-09
1.803766548e-09
1.797205968e-09
1.737849883e-09
1.736449175e-09
1.733372075e-09
1.728710258e-09
1.722493806e-09
1.666799605e-09
1.665461436e-09
1.662523509e-09
1.658074219e-09
1.652143788e-09
1.594099809e-09
1.592836888e-09
1.590062481e-09
1.585858914e-09
1.580254107e-09
1.516077984e-09
1.514916947e-09
1.512363129e-09
1.508492532e-09
1.50333642e-09
1.43287095e-09
1.4318192e-09
1.429499868e-09
1.425977752e-09
1.421277086e-09
1.346434383e-09
1.345500472e-09
1.343435962e-09
1.340296167e-09
1.336103171e-09
1.261179324e-09
1.260360625e-09
1.258547283e-09
1.255786557e-09
1.252098514e-09
1.181773916e-09
1.181058567e-09
1.179471639e-09
1.177052014e-09
1.173815805e-09
1.110592391e-09
1.109946606e-09
1.108514773e-09
1.106333516e-09
1.103419349e-09
1.048051755e-09
1.047462238e-09
1.04615573e-09
1.044165033e-09
1.041502993e-09
9.973895086e-10
9.96844914e-10
9.956387832e-10
9.938020829e-10
9.913467865e-10
4.458341412e-05
0.0002034863672
0.0003257101166
0.0003880084159
0.0004219989842
0.0004659695329
0.0005328955575
0.0006039540689
0.0006611916236
0.0007052790668
0.0007439058453
0.0007853004227
0.0008278178141
0.0008708513083
0.0009170370954
0.0009683573846
0.0010266631
0.001096659086
0.001183599828
0.001232832988
0.001178424405
0.001042643563
0.0008757807907
0.0007070306546
0.0005532778949
0.0004217903755
0.0003220034379
0.0002446271928
0.0001848660136
0.0001385274719
0.0001024578345
7.439767594e-05
5.272426973e-05
3.62460653e-05
2.40382559e-05
1.531023375e-05
9.333148539e-06
5.432102151e-06
3.013286637e-06
1.59154234e-06
8.004670684e-07
3.841282097e-07
1.76870891e-07
7.916787865e-08
3.542003925e-08
1.668801137e-08
8.906246783e-09
5.681088132e-09
4.267503707e-09
3.560051026e-09
3.131729976e-09
2.832251859e-09
2.595818128e-09
2.399937729e-09
2.234605737e-09
2.094531017e-09
1.976191121e-09
1.876511564e-09
1.791838762e-09
1.717391576e-09
1.64727359e-09
1.575656211e-09
1.49912566e-09
1.417447748e-09
1.332702369e-09
1.249118285e-09
1.171202427e-09
1.101066594e-09
1.039349919e-09
9.893592521e-10
0.000104840545
1.386819822e-05
5.998608857e-07
2.261358885e-08
1.702040322e-09
0.0005828619405
0.002553693155
0.0001469108709
4.386320741e-06
2.096101423e-07
0.0007777159529
0.002103644903
0.0001987313339
1.043283389e-05
5.614104129e-07
0.0007922461109
0.001549465441
0.0002322922547
1.840454278e-05
1.009491974e-06
0.0007744964482
0.001343718695
0.001158419268
0.0001149088334
8.110631773e-06
0.0008112060516
0.001478196143
0.002172286681
0.0002691863289
2.436693426e-05
0.0008996637088
0.001691094253
0.002680051263
0.0003886967015
4.363057178e-05
0.0009778326841
0.001733862341
0.002534248469
0.0004257412276
5.626841015e-05
0.001017481786
0.001655619197
0.002212292229
0.0006660135735
9.742275787e-05
0.001034737055
0.001579038306
0.002038639012
0.001112668318
0.00018080627
0.001050189034
0.001547173855
0.002020614586
0.001572847938
0.0002803225464
0.001077431254
0.001562590997
0.002078796626
0.001967533235
0.000380507287
0.001106310329
0.001563445902
0.002033128929
0.002035244722
0.0004568554795
0.001136591381
0.00157027687
0.002020651735
0.002161559952
0.0007065533811
0.001171951078
0.0015887737
0.002027241804
0.002239789014
0.0009628427748
0.001213736974
0.001615775506
0.002040268004
0.002290861506
0.001242980034
0.001262125841
0.001649348682
0.002062030936
0.002327889806
0.00145767223
0.001322463071
0.001696227016
0.002094245321
0.002326747933
0.001400627293
0.001402632298
0.001767115237
0.002128591488
0.002165652169
0.0009081108983
0.001416919068
0.001701863929
0.001958779523
0.002020619687
0.0009529870964
0.001287072549
0.001411779592
0.001458549553
0.001373237955
0.001079706075
0.00108451758
0.001102317942
0.001057804342
0.0009443747772
0.0007725254403
0.0008799784009
0.0008518809153
0.0007862800356
0.000689325321
0.0005735077161
0.0006963441386
0.0006574245603
0.0005977374668
0.000523374898
0.0004423487898
0.0005402423719
0.0005053239952
0.0004580498292
0.0004030833634
0.0003452370322
0.0004105581922
0.0003833617962
0.0003484526493
0.0003090646817
0.0002682041487
0.0003134938164
0.0002934284024
0.0002681237476
0.000239834037
0.0002105426179
0.0002384575476
0.0002240196307
0.0002058867702
0.0001856203606
0.0001645582903
0.0001805127204
0.0001702734509
0.0001573676993
0.0001428781359
0.0001277230027
0.0001355330142
0.0001283747736
0.0001192668276
0.000108961819
9.809679561e-05
0.0001004585858
9.554251596e-05
8.919400191e-05
8.193629603e-05
7.42132895e-05
7.311021862e-05
6.980701114e-05
6.545440129e-05
6.041543627e-05
5.49991876e-05
5.193172229e-05
4.977106138e-05
4.684982163e-05
4.341857479e-05
3.969133091e-05
3.578592495e-05
3.441933313e-05
3.251183865e-05
3.023450037e-05
2.773369809e-05
2.379134927e-05
2.296219314e-05
2.175868023e-05
2.029535849e-05
1.867030267e-05
1.519168937e-05
1.471284424e-05
1.398370466e-05
1.30788642e-05
1.206213795e-05
9.285566299e-06
9.024242364e-06
8.602175198e-06
8.0662692e-06
7.456588098e-06
5.41941703e-06
5.285619418e-06
5.053088314e-06
4.750148854e-06
4.400938992e-06
3.014925191e-06
2.951200889e-06
2.829658223e-06
2.66665891e-06
2.476107032e-06
1.59715183e-06
1.569240056e-06
1.509129219e-06
1.425826414e-06
1.326964691e-06
8.057285781e-07
7.94678452e-07
7.666056549e-07
7.262237771e-07
6.775141456e-07
3.878191452e-07
3.839816272e-07
3.716084805e-07
3.530393307e-07
3.302457063e-07
1.790728162e-07
1.779718622e-07
1.728112631e-07
1.646918243e-07
1.54538992e-07
8.033176083e-08
8.010954925e-08
7.805222575e-08
7.46511499e-08
7.031848366e-08
3.597195583e-08
3.595845133e-08
3.515250633e-08
3.376248885e-08
3.196389265e-08
1.692043334e-08
1.692047701e-08
1.659030805e-08
1.601451729e-08
1.526417441e-08
8.988462182e-09
8.968421121e-09
8.812931253e-09
8.55367297e-09
8.218551705e-09
5.699431122e-09
5.664626529e-09
5.571140276e-09
5.431872065e-09
5.25779858e-09
4.261402792e-09
4.221481103e-09
4.153189398e-09
4.061958542e-09
3.952403345e-09
3.546177235e-09
3.507153447e-09
3.451860881e-09
3.382887641e-09
3.302276163e-09
3.116439608e-09
3.080768886e-09
3.033924668e-09
2.977273417e-09
2.912026821e-09
2.817770285e-09
2.78597402e-09
2.745437361e-09
2.697096382e-09
2.641812231e-09
2.582661358e-09
2.554537413e-09
2.519174106e-09
2.47726957e-09
2.42947721e-09
2.388113824e-09
2.363218653e-09
2.332160868e-09
2.295484199e-09
2.253700235e-09
2.223966352e-09
2.201809639e-09
2.174320985e-09
2.141931094e-09
2.105050243e-09
2.084856345e-09
2.064922717e-09
2.040329126e-09
2.01141589e-09
1.978513313e-09
1.967254511e-09
1.949055506e-09
1.92674762e-09
1.900599715e-09
1.870878546e-09
1.86810842e-09
1.851213203e-09
1.830655291e-09
1.806647382e-09
1.77940726e-09
1.783821056e-09
1.767895086e-09
1.748655741e-09
1.726271523e-09
1.700917154e-09
1.709697077e-09
1.694538212e-09
1.676321532e-09
1.655164527e-09
1.631218387e-09
1.639906092e-09
1.625436734e-09
1.608084918e-09
1.587952698e-09
1.565193531e-09
1.568729875e-09
1.555088718e-09
1.538703426e-09
1.519705921e-09
1.498238657e-09
1.492843734e-09
1.480290639e-09
1.465126406e-09
1.447435869e-09
1.427372523e-09
1.411814658e-09
1.40044785e-09
1.386584962e-09
1.370366098e-09
1.3519349e-09
1.327774312e-09
1.317684972e-09
1.305275335e-09
1.290691749e-09
1.274076539e-09
1.244853626e-09
1.236012644e-09
1.22505715e-09
1.21212687e-09
1.19734953e-09
1.167481531e-09
1.159704082e-09
1.150022398e-09
1.138525722e-09
1.12532526e-09
1.097713799e-09
1.090704591e-09
1.081979427e-09
1.071612574e-09
1.05971389e-09
1.036270749e-09
1.02986718e-09
1.021910061e-09
1.01249726e-09
1.001719829e-09
9.865073901e-10
9.806086992e-10
9.732996381e-10
9.64669611e-10
9.548125456e-10
6.034473956e-10
6.51270873e-11
1.378692522e-11
8.713760674e-12
7.42105623e-12
6.73165009e-12
6.307430509e-12
6.059120112e-12
5.928010629e-12
5.866122242e-12
5.8399378e-12
5.829517247e-12
5.825235238e-12
5.822967721e-12
5.82117284e-12
5.820049914e-12
5.819627516e-12
5.819992828e-12
5.820767795e-12
5.821126357e-12
5.821097007e-12
5.820896518e-12
5.820646415e-12
5.820392207e-12
5.820150774e-12
5.819932871e-12
5.819735643e-12
5.819552684e-12
5.819387301e-12
5.819244145e-12
5.819116037e-12
5.818995303e-12
5.818880663e-12
5.818774227e-12
5.818684415e-12
5.818608108e-12
5.818542704e-12
5.818486338e-12
5.818440082e-12
5.818400908e-12
5.818367748e-12
5.818341334e-12
5.818317552e-12
5.818292838e-12
5.818274166e-12
5.81827454e-12
5.818286618e-12
5.818306685e-12
5.818329689e-12
5.818357085e-12
5.818386837e-12
5.818421294e-12
5.818456311e-12
5.818493578e-12
5.818453192e-12
5.817649549e-12
5.811531666e-12
5.780289472e-12
5.663229118e-12
5.513745838e-12
3.657797745e-08
4.78405537e-09
6.295434504e-10
1.16900985e-10
4.219735009e-11
2.359384672e-11
1.667787322e-11
1.354369601e-11
1.206018316e-11
1.138262493e-11
1.109479031e-11
1.098231806e-11
1.094134213e-11
1.092575114e-11
1.091727119e-11
1.090993092e-11
1.090832564e-11
1.091288535e-11
1.091648274e-11
1.091821859e-11
1.091868096e-11
1.0918573e-11
1.091828524e-11
1.091796085e-11
1.091769248e-11
1.091747339e-11
1.091724769e-11
1.091704463e-11
1.091694377e-11
1.091690664e-11
1.091687404e-11
1.091682038e-11
1.091677848e-11
1.091681504e-11
1.091693261e-11
1.091705559e-11
1.091718045e-11
1.091728567e-11
1.091745115e-11
1.09175743e-11
1.091777175e-11
1.091802129e-11
1.091820824e-11
1.091841022e-11
1.091855804e-11
1.09187643e-11
1.091895479e-11
1.091921299e-11
1.091946976e-11
1.091970924e-11
1.091992967e-11
1.09201781e-11
1.092038168e-11
1.092064962e-11
1.092076285e-11
1.092045374e-11
1.09184765e-11
1.09142192e-11
1.092765021e-11
1.096833534e-11
1.304184583e-07
4.129561535e-08
6.0853685e-09
9.237640864e-10
2.387816512e-10
9.581849989e-11
5.003037571e-11
3.065883481e-11
2.145810984e-11
1.711263029e-11
1.517637091e-11
1.438416562e-11
1.409003103e-11
1.398913032e-11
1.395268957e-11
1.393288482e-11
1.392899556e-11
1.393934967e-11
1.394667527e-11
1.395032553e-11
1.395155235e-11
1.395165055e-11
1.395137038e-11
1.395102607e-11
1.395073168e-11
1.39504977e-11
1.395032968e-11
1.395022233e-11
1.3950177e-11
1.395020213e-11
1.395028066e-11
1.395039899e-11
1.395058838e-11
1.395084456e-11
1.395113543e-11
1.395146071e-11
1.395183072e-11
1.395219671e-11
1.395257993e-11
1.395293437e-11
1.395335724e-11
1.395380293e-11
1.395424254e-11
1.395472366e-11
1.395518014e-11
1.395568144e-11
1.395614342e-11
1.395666839e-11
1.39571601e-11
1.395767377e-11
1.395815355e-11
1.395869236e-11
1.395915189e-11
1.395971922e-11
1.396020588e-11
1.396115828e-11
1.396439638e-11
1.397997e-11
1.403895242e-11
1.411128561e-11
3.169917073e-07
2.132075567e-07
6.598884373e-08
8.613059576e-09
1.71318981e-09
5.572505439e-10
2.406132801e-10
1.172070146e-10
6.107766992e-11
3.491592428e-11
2.313121883e-11
1.818242639e-11
1.628870094e-11
1.563465935e-11
1.54273935e-11
1.535909725e-11
1.534606443e-11
1.536098452e-11
1.537256289e-11
1.537909163e-11
1.538216657e-11
1.538355556e-11
1.538430057e-11
1.53848526e-11
1.538537623e-11
1.538590003e-11
1.538643868e-11
1.538699932e-11
1.538757726e-11
1.538817951e-11
1.538880278e-11
1.538944123e-11
1.539011088e-11
1.539080451e-11
1.53915088e-11
1.53922355e-11
1.539298019e-11
1.539371002e-11
1.539442977e-11
1.539513095e-11
1.539584826e-11
1.539656001e-11
1.539726878e-11
1.539799013e-11
1.539869887e-11
1.539942312e-11
1.540011802e-11
1.540082859e-11
1.540150269e-11
1.540219692e-11
1.5402862e-11
1.54035578e-11
1.540419205e-11
1.540492042e-11
1.540570703e-11
1.540738112e-11
1.541234914e-11
1.542976555e-11
1.54768358e-11
1.55248457e-11
1.083815178e-06
6.191615946e-07
4.263409814e-07
8.229974891e-08
1.257496432e-08
3.169408392e-09
1.157992896e-09
4.973063146e-10
2.246574436e-10
1.039050475e-10
5.086079548e-11
2.87300925e-11
2.020101625e-11
1.719692677e-11
1.624110697e-11
1.596237567e-11
1.590113745e-11
1.591128601e-11
1.592542532e-11
1.59348379e-11
1.594013321e-11
1.594322279e-11
1.594535735e-11
1.594710689e-11
1.59486836e-11
1.595015551e-11
1.595155156e-11
1.59528872e-11
1.595417116e-11
1.59554133e-11
1.595661687e-11
1.595778526e-11
1.595892818e-11
1.596004633e-11
1.596113708e-11
1.596220893e-11
1.596325948e-11
1.596427611e-11
1.596525998e-11
1.596621469e-11
1.596715035e-11
1.596805805e-11
1.596894404e-11
1.596981395e-11
1.597066081e-11
1.597149639e-11
1.597230587e-11
1.597310112e-11
1.597386398e-11
1.597462418e-11
1.597535847e-11
1.597609574e-11
1.597679774e-11
1.597756556e-11
1.597848163e-11
1.598025797e-11
1.598474905e-11
1.59971788e-11
1.602376828e-11
1.604761491e-11
1.724065435e-06
9.57771233e-07
9.874177077e-07
4.651660521e-07
7.324027975e-08
1.360660144e-08
4.025659176e-09
1.537208205e-09
6.409540248e-10
2.714881071e-10
1.157911843e-10
5.242830262e-11
2.825839919e-11
1.97757458e-11
1.707220606e-11
1.6293711e-11
1.61074368e-11
1.6093643e-11
1.610611999e-11
1.61176721e-11
1.612508008e-11
1.612978891e-11
1.61331711e-11
1.613592857e-11
1.613834834e-11
1.614054702e-11
1.614257952e-11
1.614447608e-11
1.614625713e-11
1.614794018e-11
1.614953548e-11
1.615105276e-11
1.615250206e-11
1.615388964e-11
1.615521862e-11
1.615649625e-11
1.615772469e-11
1.615890329e-11
1.61600349e-11
1.616112428e-11
1.616217604e-11
1.6163188e-11
1.616416464e-11
1.616510751e-11
1.616601515e-11
1.616689459e-11
1.61677455e-11
1.616857161e-11
1.616936636e-11
1.617013965e-11
1.617088458e-11
1.617161713e-11
1.617233164e-11
1.617310217e-11
1.617406644e-11
1.617577646e-11
1.617948279e-11
1.618767978e-11
1.620172213e-11
1.62126751e-11
2.837350941e-06
1.00714314e-06
1.374110325e-06
1.272033148e-06
3.812686701e-07
5.641080773e-08
1.236630011e-08
4.020044402e-09
1.548588734e-09
6.199692673e-10
2.470364409e-10
9.932466779e-11
4.388084276e-11
2.458975839e-11
1.844825172e-11
1.666993304e-11
1.622232578e-11
1.615094033e-11
1.615406722e-11
1.616628814e-11
1.617567414e-11
1.618203659e-11
1.618664332e-11
1.619031819e-11
1.619345397e-11
1.619623259e-11
1.619874675e-11
1.620105063e-11
1.620318087e-11
1.62051639e-11
1.62070191e-11
1.62087625e-11
1.621040714e-11
1.621196353e-11
1.621343947e-11
1.621484275e-11
1.621617902e-11
1.621745264e-11
1.62186682e-11
1.621983053e-11
1.622094383e-11
1.622200993e-11
1.622303271e-11
1.622401431e-11
1.622495538e-11
1.622585897e-11
1.622672699e-11
1.622756398e-11
1.622837005e-11
1.622914786e-11
1.622989609e-11
1.623062578e-11
1.623134864e-11
1.623213716e-11
1.623315897e-11
1.623489006e-11
1.623821558e-11
1.62443022e-11
1.62528474e-11
1.625836678e-11
4.300922729e-06
7.07040001e-07
1.436930166e-06
1.977393082e-06
1.286587683e-06
2.495966924e-07
3.98510119e-08
1.02875995e-08
3.520812774e-09
1.324801321e-09
5.017072207e-10
1.876573281e-10
7.258207406e-11
3.321996571e-11
2.08352558e-11
1.727344951e-11
1.635930379e-11
1.618060684e-11
1.616243287e-11
1.617264805e-11
1.618356092e-11
1.619161715e-11
1.619755014e-11
1.620221169e-11
1.620608874e-11
1.620943836e-11
1.621240502e-11
1.621507664e-11
1.621751134e-11
1.621974968e-11
1.622182147e-11
1.62237497e-11
1.622555242e-11
1.622724445e-11
1.622883745e-11
1.623034153e-11
1.623176495e-11
1.623311475e-11
1.62343971e-11
1.623561753e-11
1.623678078e-11
1.623789034e-11
1.623895028e-11
1.623996433e-11
1.624093511e-11
1.624186461e-11
1.624275381e-11
1.624360603e-11
1.62444239e-11
1.624521071e-11
1.624596973e-11
1.624671262e-11
1.624746204e-11
1.624830106e-11
1.624942515e-11
1.625129115e-11
1.625458486e-11
1.625988632e-11
1.626634621e-11
1.626965791e-11
8.880711461e-06
7.989081044e-07
1.362411298e-06
2.439225464e-06
2.564692016e-06
1.000867764e-06
1.45400015e-07
2.754297189e-08
7.936333217e-09
2.728580796e-09
9.744823089e-10
3.438236044e-10
1.214998734e-10
4.753030494e-11
2.471873576e-11
1.824347155e-11
1.657367296e-11
1.621933309e-11
1.616348997e-11
1.616766283e-11
1.617910279e-11
1.618867555e-11
1.619599088e-11
1.620174627e-11
1.620646157e-11
1.621045216e-11
1.621391552e-11
1.62169809e-11
1.621973485e-11
1.622223676e-11
1.622452957e-11
1.622664503e-11
1.622860768e-11
1.623043723e-11
1.623214924e-11
1.623375677e-11
1.623527054e-11
1.623669966e-11
1.623805187e-11
1.623933384e-11
1.624055136e-11
1.624170917e-11
1.624281186e-11
1.624386361e-11
1.624486827e-11
1.624582914e-11
1.624674812e-11
1.62476276e-11
1.62484696e-11
1.624927785e-11
1.625005871e-11
1.62508287e-11
1.625162124e-11
1.625253556e-11
1.625379552e-11
1.625585028e-11
1.625925932e-11
1.626431463e-11
1.626994803e-11
1.627218689e-11
1.958748149e-05
1.52281606e-06
1.029183257e-06
2.741229749e-06
3.579652455e-06
2.55303809e-06
5.363366092e-07
7.524038436e-08
1.734693973e-08
5.303876667e-09
1.769727431e-09
5.918120835e-10
1.96076163e-10
6.878455164e-11
3.042992163e-11
1.968281129e-11
1.690216263e-11
1.628414911e-11
1.616844009e-11
1.616098772e-11
1.617149125e-11
1.618218861e-11
1.619082546e-11
1.619773281e-11
1.620337831e-11
1.620809662e-11
1.621212457e-11
1.621563234e-11
1.62187401e-11
1.622153114e-11
1.622406472e-11
1.622638344e-11
1.622851971e-11
1.623049878e-11
1.623234059e-11
1.623406142e-11
1.623567468e-11
1.623719153e-11
1.623862144e-11
1.623997254e-11
1.624125182e-11
1.624246526e-11
1.624361821e-11
1.624471538e-11
1.624576086e-11
1.624675843e-11
1.624771113e-11
1.624862227e-11
1.624949456e-11
1.625033207e-11
1.625114236e-11
1.625194705e-11
1.625279139e-11
1.625379538e-11
1.625520767e-11
1.625745961e-11
1.626101163e-11
1.626597622e-11
1.627117878e-11
1.627269008e-11
3.489870583e-05
3.60916839e-06
8.057210233e-07
2.992388714e-06
4.660229315e-06
4.523845903e-06
1.531185879e-06
2.124799961e-07
3.80066326e-08
9.909962413e-09
3.010839502e-09
9.442870544e-10
2.955509763e-10
9.618055933e-11
3.777030795e-11
2.158532505e-11
1.736172452e-11
1.638536097e-11
1.618236243e-11
1.615576741e-11
1.616333737e-11
1.617461437e-11
1.618443616e-11
1.619250799e-11
1.619915929e-11
1.620469678e-11
1.62093705e-11
1.621338318e-11
1.621688992e-11
1.622000279e-11
1.622280143e-11
1.622534236e-11
1.622766756e-11
1.622980866e-11
1.623179064e-11
1.623363342e-11
1.623535341e-11
1.623696414e-11
1.623847703e-11
1.623990184e-11
1.624124685e-11
1.624251921e-11
1.624372505e-11
1.624486985e-11
1.624595814e-11
1.624699436e-11
1.624798204e-11
1.62489251e-11
1.624982748e-11
1.625069515e-11
1.62515381e-11
1.625238363e-11
1.625328903e-11
1.625439435e-11
1.62559649e-11
1.625840375e-11
1.626208243e-11
1.62669787e-11
1.62718656e-11
1.627274604e-11
5.327808572e-05
5.358732487e-06
7.627050005e-07
2.909648804e-06
5.887984349e-06
6.707725298e-06
3.571920878e-06
5.966976031e-07
9.075626042e-08
1.89768902e-08
4.977087303e-09
1.420073157e-09
4.154118686e-10
1.272047315e-10
4.604067719e-11
2.382552649e-11
1.794641189e-11
1.652901978e-11
1.620870935e-11
1.615358383e-11
1.615555563e-11
1.616666801e-11
1.617745521e-11
1.618664813e-11
1.619434589e-11
1.620078181e-11
1.620618668e-11
1.621077697e-11
1.621473728e-11
1.621821085e-11
1.622130211e-11
1.622408543e-11
1.622661468e-11
1.622892962e-11
1.623106099e-11
1.623303308e-11
1.62348656e-11
1.62365749e-11
1.623817454e-11
1.623967611e-11
1.624108932e-11
1.624242245e-11
1.624368256e-11
1.624487593e-11
1.624600777e-11
1.624708343e-11
1.624810689e-11
1.624908274e-11
1.62500158e-11
1.625091399e-11
1.625179125e-11
1.625268231e-11
1.625365819e-11
1.625487549e-11
1.62566035e-11
1.6259212e-11
1.626299076e-11
1.626780795e-11
1.62724154e-11
1.627268118e-11
6.834232898e-05
8.063944693e-06
9.490363684e-07
2.064620273e-06
7.157750122e-06
9.329953359e-06
6.554004803e-06
1.56044346e-06
2.124048911e-07
3.646804779e-08
7.900922669e-09
1.985634167e-09
5.366654422e-10
1.563165241e-10
5.393906694e-11
2.613780549e-11
1.861251358e-11
1.671095177e-11
1.624874152e-11
1.61555659e-11
1.614885266e-11
1.61588275e-11
1.617023557e-11
1.618041236e-11
1.618912232e-11
1.619648762e-11
1.620268704e-11
1.620792316e-11
1.6212395e-11
1.621627268e-11
1.621968723e-11
1.622273437e-11
1.622548293e-11
1.622798313e-11
1.623027271e-11
1.623238112e-11
1.62343318e-11
1.62361442e-11
1.623783417e-11
1.623941528e-11
1.624089874e-11
1.624229412e-11
1.624360951e-11
1.624485215e-11
1.624602822e-11
1.624714376e-11
1.624820337e-11
1.624921242e-11
1.625017677e-11
1.625110697e-11
1.625202173e-11
1.625296343e-11
1.625401706e-11
1.625535275e-11
1.625723385e-11
1.625999287e-11
1.626384381e-11
1.62685655e-11
1.627290553e-11
1.627250109e-11
0.0001130413993
1.473629551e-05
1.191024915e-06
1.451458734e-06
8.894476141e-06
1.257899267e-05
1.047425164e-05
3.606088656e-06
4.893556208e-07
7.262684187e-08
1.272524193e-08
2.720632783e-09
6.657628941e-10
1.840805445e-10
6.150524559e-11
2.849492844e-11
1.933954375e-11
1.692308795e-11
1.630082315e-11
1.616209856e-11
1.614392946e-11
1.61517185e-11
1.616327574e-11
1.617417231e-11
1.618374273e-11
1.619197233e-11
1.619896431e-11
1.620487876e-11
1.620990476e-11
1.621422504e-11
1.621799253e-11
1.622132451e-11
1.622430689e-11
1.622700231e-11
1.622945725e-11
1.623170733e-11
1.623378045e-11
1.623569926e-11
1.623748218e-11
1.623914475e-11
1.624069984e-11
1.624215842e-11
1.624352986e-11
1.624482244e-11
1.624604325e-11
1.62471989e-11
1.624829479e-11
1.624933726e-11
1.625033366e-11
1.625129792e-11
1.62522542e-11
1.625325247e-11
1.625439044e-11
1.625584745e-11
1.625787561e-11
1.626076688e-11
1.626466482e-11
1.626927731e-11
1.627335117e-11
1.627219746e-11
0.0001681519807
2.464693474e-05
3.135744572e-06
1.679386083e-06
1.177984334e-05
1.683659714e-05
1.478487088e-05
6.942488204e-06
1.123626266e-06
1.530571232e-07
2.074880409e-08
3.569951977e-09
7.749335574e-10
2.048667416e-10
6.761634709e-11
3.059792518e-11
2.00348486e-11
1.7136225e-11
1.635732337e-11
1.617199399e-11
1.614119086e-11
1.614601366e-11
1.615720545e-11
1.616844686e-11
1.617860043e-11
1.61875081e-11
1.619519051e-11
1.620174555e-11
1.620732604e-11
1.621210529e-11
1.621624479e-11
1.621987766e-11
1.622310572e-11
1.622600465e-11
1.622863063e-11
1.623102627e-11
1.623322455e-11
1.623525161e-11
1.623712878e-11
1.623887363e-11
1.624050085e-11
1.624202301e-11
1.624345077e-11
1.624479341e-11
1.624605889e-11
1.624725449e-11
1.624838666e-11
1.624946302e-11
1.625049283e-11
1.625149398e-11
1.62524966e-11
1.625355836e-11
1.625478714e-11
1.62563659e-11
1.625853305e-11
1.626153903e-11
1.626546234e-11
1.626995637e-11
1.627376997e-11
1.627189017e-11
0.000236990018
3.607039082e-05
5.380026341e-06
2.393219451e-06
1.648464982e-05
2.27110983e-05
1.948251586e-05
1.06529818e-05
2.35163056e-06
3.339614621e-07
3.574547813e-08
4.671798678e-09
8.727032411e-10
2.217477781e-10
7.301354015e-11
3.251432936e-11
2.067362362e-11
1.733358407e-11
1.641237269e-11
1.618391096e-11
1.614073919e-11
1.614223618e-11
1.615260805e-11
1.616377141e-11
1.617414578e-11
1.618344484e-11
1.619161557e-11
1.619868879e-11
1.620476254e-11
1.620997761e-11
1.621448521e-11
1.621842239e-11
1.622190105e-11
1.622500765e-11
1.622780758e-11
1.623035056e-11
1.62326748e-11
1.623481037e-11
1.623678162e-11
1.623860844e-11
1.624030742e-11
1.624189279e-11
1.624337636e-11
1.624476848e-11
1.624607802e-11
1.62473131e-11
1.624848143e-11
1.624959212e-11
1.625065684e-11
1.625169778e-11