/*--------------------------------*- C++ -*----------------------------------*\
  =========                 |
  \\      /  F ield         | OpenFOAM: The Open Source CFD Toolbox
   \\    /   O peration     | Website:  https://openfoam.org
    \\  /    A nd           | Version:  10
     \\/     M anipulation  |
\*---------------------------------------------------------------------------*/
FoamFile
{
    format      ascii;
    class       volScalarField;
    location    "0.02498436188";
    object      C2H6;
}
// * * * * * * * * * * * * * * * * * * * * * * * * * * * * * * * * * * * * * //

dimensions      [0 0 0 0 0 0 0];

internalField   nonuniform List<scalar> 
5170
(
2.941942342e-10
2.937009877e-10
2.903940019e-10
2.668432779e-10
2.020554802e-11
5.836322491e-10
5.820967076e-10
5.750829535e-10
5.391766316e-10
3.345748539e-10
8.701288957e-10
8.675776317e-10
8.573495731e-10
8.145325037e-10
6.457384551e-10
1.153158595e-09
1.149709071e-09
1.137096706e-09
1.09158093e-09
9.574138114e-10
1.432600673e-09
1.428409894e-09
1.414321484e-09
1.369490549e-09
1.269404801e-09
1.708512597e-09
1.703862167e-09
1.689241018e-09
1.648126611e-09
1.581724688e-09
1.981233502e-09
1.976356863e-09
1.962113892e-09
1.927712574e-09
1.894581088e-09
2.251314094e-09
2.246540568e-09
2.233521057e-09
2.208328759e-09
2.208241011e-09
2.519160222e-09
2.514776026e-09
2.503920181e-09
2.49027329e-09
2.522929476e-09
2.785196e-09
2.781399025e-09
2.77335484e-09
2.773856271e-09
2.838865702e-09
3.049648346e-09
3.046637858e-09
3.041928409e-09
3.059191673e-09
3.156009577e-09
3.312520956e-09
3.310559818e-09
3.310296211e-09
3.34615657e-09
3.473990097e-09
3.573866664e-09
3.573229729e-09
3.578744871e-09
3.634723683e-09
3.792453171e-09
3.833773436e-09
3.834739362e-09
3.847217877e-09
3.924860756e-09
4.111086787e-09
4.092297091e-09
4.095194572e-09
4.115730727e-09
4.216412024e-09
4.429535688e-09
4.349435544e-09
4.354636287e-09
4.384714742e-09
4.509443313e-09
4.747081658e-09
4.605260627e-09
4.613186012e-09
4.653947257e-09
4.803433311e-09
5.064062338e-09
4.85988612e-09
4.871037803e-09
4.924329176e-09
5.098998817e-09
5.380240327e-09
5.113956993e-09
5.130509688e-09
5.210400791e-09
5.499293613e-09
6.112719497e-09
5.523033386e-09
6.260522389e-09
1.245437846e-08
5.507417954e-08
2.450245291e-07
1.517129634e-28
2.882308773e-30
4.203862768e-30
3.408764818e-30
3.370345635e-30
4.333592827e-29
0
0
1.862031064e-29
1.478739282e-29
0
0
0
8.854603869e-27
0
0
4.247172686e-26
0
3.131384545e-25
0
1.414814165e-21
3.072265233e-23
1.173530511e-23
1.853431319e-22
0
0
0
1.745947312e-21
1.504011641e-20
0
0
0
0
2.694649478e-16
5.499832715e-16
4.879938757e-16
2.331948395e-17
0
0
1.94536013e-17
1.888717887e-17
0
6.418690067e-17
0
0
0
0
0
0
0
0
0
0
0
0
0
0
0
0
0
0
0
0
0
0
0
0
0
0
0
0
0
0
0
0
0
0
0
0
0
0
0
0
0
0
0
0
0
0
0
1.395662934e-08
0
0
0
0
3.657504887e-06
1.602964536e-07
2.977054224e-08
4.010507925e-10
4.956705473e-12
1.153999223e-08
5.188954217e-08
7.197287677e-07
1.065914098e-05
0.0001415021699
3.96529266e-08
2.358771725e-07
2.846073297e-06
3.029927515e-05
0.0002347972033
1.234147518e-07
7.272489357e-07
7.362093573e-06
5.987241859e-05
0.0003183851609
3.239072263e-07
1.783168962e-06
1.531762121e-05
9.865066949e-05
0.0003880396389
7.484666012e-07
3.792104139e-06
2.792798344e-05
0.0001437164224
0.000441316759
1.602896828e-06
7.491388844e-06
4.656215244e-05
0.0001914119515
0.0004849086553
3.231120992e-06
1.387396165e-05
7.184912308e-05
0.000240025687
0.0005273524986
6.152444122e-06
2.402636838e-05
0.0001034402322
0.0002887076712
0.0005693155786
1.120295187e-05
3.930179836e-05
0.0001405314204
0.0003361512923
0.0006074242227
1.96526363e-05
6.09198854e-05
0.0001819688236
0.0003824099398
0.0006431675688
3.348973363e-05
9.031374382e-05
0.0002269597191
0.0004276984273
0.0006771412277
5.645101708e-05
0.0001282173777
0.0002743331406
0.0004725847819
0.0007102978263
9.325469684e-05
0.000174441079
0.0003240441014
0.0005173014903
0.000742496736
0.0001424907875
0.0002273703358
0.0003756264526
0.0005615203789
0.0007732050289
0.0002071582419
0.0002884842442
0.0004303280445
0.0006065301199
0.0008047199783
0.0002823502132
0.0003566271008
0.0004893090131
0.0006547476875
0.0008400707346
0.0003688255555
0.0004349620354
0.000556531514
0.0007098743622
0.00088224906
0.0004692666075
0.0005264138306
0.0006355520056
0.0007769999197
0.0009387930955
0.0005788386611
0.0006291049014
0.0007289691811
0.0008629111408
0.001019331631
0.0006992064211
0.0007442985822
0.0008352571343
0.0009582028822
0.001101726812
0.0008226945185
0.0008583130436
0.0009290559456
0.00102121248
0.001122545114
0.0009082087491
0.0009265620832
0.0009625831413
0.001007516692
0.001052810215
0.0008928535753
0.0008981318355
0.0009076284608
0.0009174006243
0.0009232631309
0.0007949374098
0.000793970138
0.0007907525199
0.000783886834
0.0007718992312
0.0006615144649
0.0006585821006
0.0006515244024
0.0006401305185
0.0006242753777
0.0005277977324
0.0005248496187
0.0005180838788
0.000507588873
0.0004935252015
0.0004183788712
0.000415981158
0.0004104740999
0.0004020269611
0.0003908772636
0.0003297560635
0.000327912989
0.0003237027561
0.0003172826928
0.0003088628838
0.000258996339
0.0002576226324
0.0002544946097
0.0002497359679
0.000243508074
0.0002023967231
0.0002013916961
0.0001991053052
0.0001956279497
0.0001910769799
0.0001567862754
0.0001560624692
0.0001544141184
0.0001519041303
0.0001486154382
0.0001197914769
0.0001192789049
0.0001181079705
0.0001163207607
0.0001139749995
8.97591404e-05
8.940345014e-05
8.858689503e-05
8.733649255e-05
8.56919367e-05
6.560638973e-05
6.536593698e-05
6.481012378e-05
6.395555312e-05
6.282917852e-05
4.660638028e-05
4.644893809e-05
4.608190479e-05
4.551489874e-05
4.476587517e-05
3.215086413e-05
3.20514178e-05
3.181717301e-05
3.145334616e-05
3.097161492e-05
2.159039361e-05
2.152976852e-05
2.138530871e-05
2.115960755e-05
2.086003472e-05
1.420261259e-05
1.416678146e-05
1.408032759e-05
1.394441906e-05
1.376357185e-05
9.249701881e-06
9.228932556e-06
9.178233077e-06
9.098068012e-06
8.991123197e-06
6.056015777e-06
6.043982761e-06
6.01435834e-06
5.967308164e-06
5.904390684e-06
4.062022406e-06
4.054853227e-06
4.037178991e-06
4.009064398e-06
3.971399357e-06
2.843587167e-06
2.839057959e-06
2.827982477e-06
2.810408849e-06
2.786844489e-06
2.103436949e-06
2.100336585e-06
2.092883658e-06
2.081134052e-06
2.065382124e-06
1.647319156e-06
1.645019798e-06
1.639604419e-06
1.631138645e-06
1.619800435e-06
1.355874025e-06
1.354056507e-06
1.349855346e-06
1.343340391e-06
1.334625774e-06
1.159410766e-06
1.157911792e-06
1.15449552e-06
1.149231085e-06
1.142196854e-06
1.018720979e-06
1.017451736e-06
1.014587099e-06
1.010192241e-06
1.004324441e-06
9.121456196e-07
9.110532773e-07
9.086036343e-07
9.048565526e-07
8.998560389e-07
8.276653367e-07
8.26715013e-07
8.245929722e-07
8.213533481e-07
8.170311832e-07
7.58372867e-07
7.575396776e-07
7.556844267e-07
7.528558042e-07
7.490823875e-07
6.999739057e-07
6.992364301e-07
6.976007732e-07
6.951106181e-07
6.917895188e-07
6.505905653e-07
6.499376835e-07
6.484898006e-07
6.462862237e-07
6.433468364e-07
6.080646027e-07
6.074821535e-07
6.06192212e-07
6.042300981e-07
6.016125972e-07
5.71193111e-07
5.706702715e-07
5.695137724e-07
5.677555465e-07
5.654098557e-07
5.391105901e-07
5.386379154e-07
5.375936344e-07
5.360068176e-07
5.338896643e-07
5.111986947e-07
5.107674715e-07
5.098159498e-07
5.083708942e-07
5.064428365e-07
4.870004657e-07
4.866023161e-07
4.857250018e-07
4.843935496e-07
4.826171866e-07
4.660761789e-07
4.657032242e-07
4.648826977e-07
4.636384556e-07
4.619787682e-07
4.478120029e-07
4.474577647e-07
4.466796119e-07
4.455006436e-07
4.439284785e-07
4.312822841e-07
4.309429941e-07
4.301985314e-07
4.290713556e-07
4.275686363e-07
4.152990368e-07
4.149742759e-07
4.14261973e-07
4.131837518e-07
4.117465169e-07
3.986844089e-07
3.983772423e-07
3.97703128e-07
3.966823436e-07
3.953215191e-07
3.80701752e-07
3.804171705e-07
3.797917005e-07
3.788437958e-07
3.775798986e-07
3.613187343e-07
3.610600068e-07
3.60490126e-07
3.596252478e-07
3.584711741e-07
3.411096014e-07
3.408786581e-07
3.403688456e-07
3.395941044e-07
3.385597549e-07
3.211102526e-07
3.209064663e-07
3.204558075e-07
3.197702734e-07
3.188546753e-07
3.024697743e-07
3.022903019e-07
3.018928983e-07
3.012876607e-07
3.004783709e-07
2.85841031e-07
2.856777879e-07
2.85316557e-07
2.847667879e-07
2.840321179e-07
2.713437814e-07
2.711923133e-07
2.708574259e-07
2.703477709e-07
2.696663812e-07
2.596290047e-07
2.59486392e-07
2.59171405e-07
2.586923739e-07
2.580521704e-07
0.0004922810573
0.0005940970091
0.0006737462255
0.0007120388973
0.0007289618708
0.0007457211658
0.0007713703409
0.0007986311582
0.000819782509
0.0008410923046
0.0008618561021
0.0008830517468
0.0009032313085
0.0009214971164
0.0009422075178
0.0009684583866
0.001002102564
0.001051694158
0.001130006932
0.001202249576
0.001188495564
0.00107879051
0.0009232263945
0.0007609914238
0.0006118072573
0.0004827659891
0.0003824971861
0.0003025715912
0.0002388656033
0.0001876908457
0.0001461754948
0.0001122432403
8.448733825e-05
6.201326315e-05
4.423107995e-05
3.063359298e-05
2.065392158e-05
1.364166058e-05
8.920346536e-06
5.863231335e-06
3.946725458e-06
2.771118202e-06
2.054514107e-06
1.611669505e-06
1.328156469e-06
1.136836228e-06
9.997705804e-07
8.959273199e-07
8.136067158e-07
7.460744954e-07
6.891287226e-07
6.409839838e-07
5.995016201e-07
5.635124097e-07
5.321721253e-07
5.048741015e-07
4.81167413e-07
4.606199333e-07
4.426375959e-07
4.26332276e-07
4.105635007e-07
3.942028601e-07
3.765441628e-07
3.575287168e-07
3.377184593e-07
3.181123389e-07
2.998222396e-07
2.834361972e-07
2.691124282e-07
2.575309715e-07
0.001098254961
8.180133979e-05
2.391068216e-06
5.859740556e-08
1.10961435e-09
0.001218728693
0.001172388892
6.781063527e-05
2.040609197e-06
4.666258588e-08
0.001304270552
0.001917804018
0.000177539584
9.165908776e-06
2.754156561e-07
0.00126904924
0.001783566963
0.0002209970833
1.716321801e-05
8.174649021e-07
0.001211369944
0.001649722236
0.0003583986632
3.628450159e-05
2.579182482e-06
0.001177685556
0.001617313065
0.0007307571186
9.053953329e-05
8.192634845e-06
0.001172568658
0.001638682627
0.001122976194
0.0001599047034
1.779431511e-05
0.001170076977
0.001618439636
0.001348455081
0.0002178590413
2.843637233e-05
0.001157004069
0.001555334742
0.001386361179
0.0002585487452
3.854867107e-05
0.001152119174
0.001530969894
0.001481746465
0.0003498178285
5.765316927e-05
0.001149109262
0.001509097423
0.001519231272
0.0004721814119
8.450786514e-05
0.001149478722
0.00148223737
0.00150748155
0.0006139529652
0.0001185605944
0.001148420335
0.001444503735
0.00148225032
0.0007475861056
0.0001549522835
0.001145426613
0.001414619824
0.001472225907
0.0008782594326
0.0002009042088
0.00114932076
0.001404189731
0.001474342318
0.0009846393485
0.0002594587061
0.001161129873
0.00140407604
0.001478788373
0.001070063082
0.0003297419525
0.0011816857
0.001412597615
0.001490787198
0.001135280142
0.000396125888
0.001220053427
0.001435908046
0.001504570962
0.001129721062
0.0003904691649
0.001292791617
0.001497271965
0.00151787638
0.001017028225
0.000300243177
0.001348734715
0.001531242838
0.001575354909
0.001237598123
0.0003394961216
0.001284690522
0.001383122257
0.001393765379
0.001273904097
0.001011771907
0.001118335817
0.001131714445
0.00108097403
0.0009609066769
0.0007873480429
0.0009263501787
0.000896072165
0.0008271156514
0.0007259030139
0.0006060787443
0.0007487959423
0.0007072671384
0.0006445558469
0.0005667796867
0.0004822294029
0.0005970353344
0.0005592430761
0.0005088747254
0.0004505974998
0.0003892917293
0.0004698098805
0.0004396773931
0.0004015941841
0.0003588104457
0.0003143748013
0.0003723988685
0.0003495220087
0.000321109733
0.0002894626284
0.0002566221627
0.0002949992089
0.0002779783572
0.0002569250552
0.0002334711394
0.0002090278625
0.0002333037504
0.0002207621053
0.000205201317
0.0001877863207
0.0001695146552
0.0001836753381
0.0001745127607
0.0001630524728
0.0001501313722
0.0001364650031
0.0001433347805
0.0001367153715
0.0001283313094
0.0001187871696
0.000108601199
0.0001102858327
0.0001055760466
9.950776036e-05
9.251996091e-05
8.499038951e-05
8.31844177e-05
7.990220979e-05
7.557984001e-05
7.053693877e-05
6.504935207e-05
6.118386881e-05
5.895849506e-05
5.594828037e-05
5.238491952e-05
4.846859174e-05
4.37313231e-05
4.227246744e-05
4.023540639e-05
3.778552951e-05
3.50656581e-05
3.03509727e-05
2.942943621e-05
2.809501189e-05
2.646275343e-05
2.463187144e-05
2.050468777e-05
1.994332123e-05
1.909733892e-05
1.804421161e-05
1.685060786e-05
1.356790797e-05
1.32361316e-05
1.271513494e-05
1.205524524e-05
1.129968148e-05
8.885397236e-06
8.69268837e-06
8.378401843e-06
7.974068656e-06
7.506715077e-06
5.846043177e-06
5.733623564e-06
5.545313632e-06
5.300204515e-06
5.014639643e-06
3.936537769e-06
3.868655917e-06
3.754324338e-06
3.60477112e-06
3.429608112e-06
2.763185984e-06
2.719422014e-06
2.647382672e-06
2.553541879e-06
2.443451673e-06
2.047173289e-06
2.016515264e-06
1.968407844e-06
1.90656331e-06
1.834179284e-06
1.604581356e-06
1.581352514e-06
1.546969818e-06
1.5035915e-06
1.453090679e-06
1.32140828e-06
1.302744012e-06
1.276561326e-06
1.244159904e-06
1.206679868e-06
1.130564409e-06
1.114992129e-06
1.0940326e-06
1.068510887e-06
1.039160488e-06
9.940498436e-07
9.807593563e-07
9.633802815e-07
9.424693676e-07
9.185285339e-07
8.907673342e-07
8.792643073e-07
8.645112545e-07
8.469053711e-07
8.268099642e-07
8.089769966e-07
7.989263556e-07
7.862028476e-07
7.711032849e-07
7.539024436e-07
7.419254279e-07
7.330803756e-07
7.219846037e-07
7.088673079e-07
6.939436045e-07
6.854024281e-07
6.775695786e-07
6.678131162e-07
6.56313262e-07
6.432409558e-07
6.376372483e-07
6.306684354e-07
6.220313022e-07
6.118710385e-07
6.003265302e-07
5.9648217e-07
5.902472894e-07
5.825528332e-07
5.735162593e-07
5.632510455e-07
5.607742342e-07
5.551626339e-07
5.4826419e-07
5.401742218e-07
5.309858417e-07
5.296724378e-07
5.245865353e-07
5.183578831e-07
5.110638756e-07
5.027810905e-07
5.025710919e-07
4.979204401e-07
4.922477041e-07
4.856154975e-07
4.780868807e-07
4.79019165e-07
4.747169717e-07
4.694935317e-07
4.633992322e-07
4.564860747e-07
4.585866406e-07
4.545515085e-07
4.49678146e-07
4.440069976e-07
4.375812612e-07
4.40688301e-07
4.368535709e-07
4.322466688e-07
4.269005267e-07
4.208513768e-07
4.244532866e-07
4.207801016e-07
4.163848721e-07
4.112950302e-07
4.055430028e-07
4.087625662e-07
4.052484303e-07
4.010487498e-07
3.961893776e-07
3.907010753e-07
3.925067821e-07
3.891849698e-07
3.852064992e-07
3.805984438e-07
3.753916051e-07
3.749881719e-07
3.71909653e-07
3.682031201e-07
3.638931158e-07
3.590116557e-07
3.561310453e-07
3.53332539e-07
3.49934876e-07
3.459690573e-07
3.414673296e-07
3.364877e-07
3.339901506e-07
3.309334438e-07
3.273499282e-07
3.232715625e-07
3.170381798e-07
3.148342303e-07
3.121189297e-07
3.089252071e-07
3.052770728e-07
2.98877081e-07
2.969247907e-07
2.945108353e-07
2.916528781e-07
2.883766936e-07
2.825751056e-07
2.807988091e-07
2.786023409e-07
2.760026948e-07
2.730222836e-07
2.683060417e-07
2.666557608e-07
2.646227955e-07
2.622272542e-07
2.594884478e-07
2.567681472e-07
2.552174798e-07
2.533153138e-07
2.510816136e-07
2.485362358e-07
4.986762447e-10
2.825257757e-09
5.770519585e-10
1.758632192e-10
9.808840565e-11
7.512418877e-11
6.669877539e-11
6.352676303e-11
6.238005052e-11
6.198711452e-11
6.18549145e-11
6.179959322e-11
6.176503707e-11
6.173827293e-11
6.172034188e-11
6.171994423e-11
6.170472654e-11
6.16749344e-11
6.166113854e-11
6.165242121e-11
6.164392367e-11
6.163520743e-11
6.162656949e-11
6.161828485e-11
6.161053258e-11
6.160344394e-11
6.159694674e-11
6.159091821e-11
6.158538251e-11
6.158038534e-11
6.157578695e-11
6.157145658e-11
6.156737975e-11
6.156357701e-11
6.15601596e-11
6.155708098e-11
6.155429486e-11
6.155173829e-11
6.154942437e-11
6.154730781e-11
6.15453673e-11
6.154358852e-11
6.154189594e-11
6.154021877e-11
6.153869756e-11
6.153755843e-11
6.153667478e-11
6.153597683e-11
6.153536755e-11
6.153488782e-11
6.153448746e-11
6.153420351e-11
6.153394509e-11
6.15336825e-11
6.153136685e-11
6.151168463e-11
6.138267974e-11
6.077280552e-11
5.861268355e-11
5.579285631e-11
1.09620636e-08
2.170386368e-08
2.687040427e-09
5.273253097e-10
2.389151775e-10
1.718875644e-10
1.492320907e-10
1.400619196e-10
1.361707338e-10
1.345333544e-10
1.338580796e-10
1.335673127e-10
1.334182707e-10
1.333165364e-10
1.332391773e-10
1.331934253e-10
1.331438032e-10
1.330875992e-10
1.33060801e-10
1.330416033e-10
1.330214153e-10
1.329995575e-10
1.329775582e-10
1.329565695e-10
1.329378613e-10
1.329211728e-10
1.329055092e-10
1.32891201e-10
1.328793546e-10
1.328693165e-10
1.328600471e-10
1.328511145e-10
1.328430583e-10
1.328368031e-10
1.328322703e-10
1.32828358e-10
1.328249769e-10
1.328215564e-10
1.328192802e-10
1.328166467e-10
1.328155647e-10
1.328154842e-10
1.32814619e-10
1.328141135e-10
1.328129671e-10
1.328129767e-10
1.328129631e-10
1.328142601e-10
1.328156526e-10
1.328170843e-10
1.328183433e-10
1.32820229e-10
1.32821372e-10
1.3282359e-10
1.328209776e-10
1.327976713e-10
1.32682243e-10
1.323100001e-10
1.317121549e-10
1.315235088e-10
5.503636553e-08
4.507484637e-08
7.603208695e-09
1.381317233e-09
5.009734217e-10
3.077698965e-10
2.440379143e-10
2.167085343e-10
2.035896592e-10
1.972799114e-10
1.943721723e-10
1.930957824e-10
1.925370413e-10
1.922564824e-10
1.920736697e-10
1.91937369e-10
1.918486276e-10
1.918064949e-10
1.917889036e-10
1.917706867e-10
1.91742858e-10
1.917076141e-10
1.916701755e-10
1.916343385e-10
1.916019414e-10
1.915729369e-10
1.91547284e-10
1.915246604e-10
1.915047683e-10
1.914877159e-10
1.914730867e-10
1.91460493e-10
1.914505961e-10
1.914430817e-10
1.914370878e-10
1.914328119e-10
1.914303246e-10
1.914282056e-10
1.914267526e-10
1.914252537e-10
1.914256944e-10
1.914270065e-10
1.914287591e-10
1.914318514e-10
1.914348522e-10
1.914390661e-10
1.914428499e-10
1.914482952e-10
1.914532277e-10
1.91459187e-10
1.914647611e-10
1.91471926e-10
1.914774137e-10
1.914854767e-10
1.914895624e-10
1.914922045e-10
1.914971064e-10
1.916308888e-10
1.924742896e-10
1.937356383e-10
1.510616434e-07
1.605419882e-07
5.925345769e-08
8.627445912e-09
2.015487204e-09
8.350801841e-10
4.938195697e-10
3.544094268e-10
2.882463947e-10
2.561252291e-10
2.410415945e-10
2.344042327e-10
2.316984325e-10
2.306463043e-10
2.302073229e-10
2.299709562e-10
2.298894449e-10
2.299345395e-10
2.299824056e-10
2.300081406e-10
2.300077162e-10
2.29989783e-10
2.299643512e-10
2.299380966e-10
2.299142877e-10
2.298933034e-10
2.298752849e-10
2.298601883e-10
2.298475936e-10
2.298375337e-10
2.298297573e-10
2.29823958e-10
2.298205236e-10
2.298191251e-10
2.298192098e-10
2.298211694e-10
2.298247356e-10
2.298286261e-10
2.298328407e-10
2.29837332e-10
2.298429623e-10
2.298490697e-10
2.298558836e-10
2.298637513e-10
2.298719266e-10
2.298809946e-10
2.298898225e-10
2.298995616e-10
2.299086881e-10
2.299190803e-10
2.299291849e-10
2.299406627e-10
2.299506064e-10
2.299636237e-10
2.2997673e-10
2.30008082e-10
2.301079925e-10
2.305065812e-10
2.317175391e-10
2.330790263e-10
2.433841373e-07
3.305261511e-07
3.548723043e-07
7.749697208e-08
1.293523666e-08
3.627577968e-09
1.532995527e-09
8.13501402e-10
5.03927078e-10
3.611770844e-10
2.958960995e-10
2.67509563e-10
2.560762538e-10
2.518342755e-10
2.503723264e-10
2.498631485e-10
2.497922049e-10
2.499571373e-10
2.501058008e-10
2.502064438e-10
2.50260969e-10
2.502849108e-10
2.502933962e-10
2.502961165e-10
2.502976652e-10
2.502995259e-10
2.503022181e-10
2.503058926e-10
2.503105047e-10
2.503161292e-10
2.503226303e-10
2.503299271e-10
2.503382279e-10
2.503474222e-10
2.503572308e-10
2.503679036e-10
2.503792211e-10
2.503904817e-10
2.504016088e-10
2.504127948e-10
2.504243164e-10
2.504357734e-10
2.504474619e-10
2.504595218e-10
2.504716497e-10
2.504841158e-10
2.50496424e-10
2.505089013e-10
2.505208946e-10
2.505336242e-10
2.505461431e-10
2.505594482e-10
2.505718731e-10
2.50586908e-10
2.506054337e-10
2.506482894e-10
2.5077008e-10
2.511515792e-10
2.520623642e-10
2.529566683e-10
4.534121861e-07
3.881327846e-07
7.544634913e-07
4.25610864e-07
7.301523787e-08
1.465836202e-08
4.733250541e-09
2.031372224e-09
1.016038713e-09
5.802247773e-10
3.89065382e-10
3.080122091e-10
2.757302071e-10
2.638592194e-10
2.598664382e-10
2.586248253e-10
2.584315229e-10
2.586649943e-10
2.589010034e-10
2.590765373e-10
2.591892185e-10
2.592580017e-10
2.593022611e-10
2.593347372e-10
2.593616756e-10
2.59385818e-10
2.594083449e-10
2.59429733e-10
2.594502258e-10
2.594700936e-10
2.594893602e-10
2.595081141e-10
2.595265333e-10
2.595446633e-10
2.595624109e-10
2.595799481e-10
2.595972101e-10
2.596139789e-10
2.596302468e-10
2.596461676e-10
2.596618436e-10
2.596770691e-10
2.596920294e-10
2.597067446e-10
2.597211015e-10
2.597352976e-10
2.597492553e-10
2.597630383e-10
2.597763446e-10
2.597896834e-10
2.598026835e-10
2.598159511e-10
2.598288492e-10
2.598437839e-10
2.598635241e-10
2.599043322e-10
2.600053691e-10
2.602669517e-10
2.60785334e-10
2.612433835e-10
1.101592274e-06
3.290192703e-07
9.449297859e-07
1.118571839e-06
3.715138869e-07
5.938179067e-08
1.401258016e-08
4.938528435e-09
2.127031288e-09
1.026125314e-09
5.658683828e-10
3.7589288e-10
3.013783986e-10
2.741740356e-10
2.650362636e-10
2.62220457e-10
2.616305944e-10
2.618256616e-10
2.621056636e-10
2.623380324e-10
2.625011482e-10
2.626099779e-10
2.626853418e-10
2.627423962e-10
2.627894708e-10
2.62830635e-10
2.628678008e-10
2.629019325e-10
2.629336322e-10
2.629633127e-10
2.629912348e-10
2.630176435e-10
2.630427412e-10
2.630666805e-10
2.630895306e-10
2.631114304e-10
2.631324385e-10
2.631525594e-10
2.631718497e-10
2.631904167e-10
2.632083304e-10
2.632255478e-10
2.632421767e-10
2.632582373e-10
2.632737028e-10
2.632886685e-10
2.633031573e-10
2.633172567e-10
2.633308741e-10
2.633441611e-10
2.633570133e-10
2.633698044e-10
2.633825077e-10
2.633969526e-10
2.634163935e-10
2.634523607e-10
2.635286421e-10
2.636906108e-10
2.639585061e-10
2.641694731e-10
2.146835485e-06
2.383466665e-07
8.694804079e-07
1.654183707e-06
1.227353636e-06
2.579102999e-07
4.428798886e-08
1.225252419e-08
4.542036782e-09
1.928143323e-09
9.069992891e-10
5.005494096e-10
3.446706486e-10
2.885736311e-10
2.698798579e-10
2.641424941e-10
2.627484318e-10
2.6276914e-10
2.630401523e-10
2.633052892e-10
2.635072056e-10
2.636499729e-10
2.637521068e-10
2.63829723e-10
2.638928514e-10
2.639468943e-10
2.6399467e-10
2.640377242e-10
2.64077027e-10
2.641132324e-10
2.641468073e-10
2.641781217e-10
2.642074611e-10
2.64235064e-10
2.642611013e-10
2.642857401e-10
2.643091062e-10
2.643312953e-10
2.643524059e-10
2.643725361e-10
2.643917631e-10
2.644101216e-10
2.64427692e-10
2.644445291e-10
2.644606639e-10
2.644761455e-10
2.644909888e-10
2.645052666e-10
2.645189946e-10
2.645322488e-10
2.645450597e-10
2.645576988e-10
2.645704789e-10
2.645850513e-10
2.646048021e-10
2.646384701e-10
2.64700459e-10
2.648096647e-10
2.649612619e-10
2.650631108e-10
3.525886913e-06
2.689468251e-07
6.564057901e-07
1.88586211e-06
2.343639728e-06
1.015608785e-06
1.589001794e-07
3.223196575e-08
9.936861036e-09
3.729026738e-09
1.544249292e-09
7.227825233e-10
4.187759698e-10
3.119252934e-10
2.768284759e-10
2.661211592e-10
2.633249565e-10
2.629984111e-10
2.632033491e-10
2.634769769e-10
2.637055999e-10
2.638764092e-10
2.64002487e-10
2.640989782e-10
2.641766578e-10
2.642419898e-10
2.642986907e-10
2.643489745e-10
2.643942488e-10
2.644354586e-10
2.644732866e-10
2.645082391e-10
2.645407052e-10
2.645710036e-10
2.645993779e-10
2.64626042e-10
2.646511666e-10
2.646748963e-10
2.646973564e-10
2.647186589e-10
2.647388985e-10
2.647581474e-10
2.647764853e-10
2.647939781e-10
2.648106838e-10
2.648266583e-10
2.648419343e-10
2.648565619e-10
2.648705767e-10
2.648840454e-10
2.648970674e-10
2.649099336e-10
2.649231982e-10
2.649385715e-10
2.649596605e-10
2.649938092e-10
2.650507727e-10
2.651386993e-10
2.652452752e-10
2.653036411e-10
6.285246726e-06
4.813154954e-07
3.921552684e-07
1.980698748e-06
3.167604634e-06
2.528511684e-06
5.770201229e-07
8.730746259e-08
2.150340737e-08
7.074777121e-09
2.636295326e-09
1.084713397e-09
5.355371431e-10
3.480159796e-10
2.874276864e-10
2.690193016e-10
2.640017832e-10
2.630902573e-10
2.631568099e-10
2.634138088e-10
2.636579965e-10
2.638513805e-10
2.639991581e-10
2.641139694e-10
2.642062488e-10
2.642829588e-10
2.643485212e-10
2.644058007e-10
2.644567087e-10
2.645025488e-10
2.645442488e-10
2.645824798e-10
2.646177525e-10
2.646504668e-10
2.646809386e-10
2.647094288e-10
2.647361518e-10
2.647612868e-10
2.647849867e-10
2.648073836e-10
2.648285914e-10
2.648487062e-10
2.648678167e-10
2.648859992e-10
2.649033195e-10
2.64919839e-10
2.649356076e-10
2.649506815e-10
2.649651102e-10
2.649789661e-10
2.649923828e-10
2.650057161e-10
2.650197286e-10
2.650363547e-10
2.650594572e-10
2.650956326e-10
2.651523093e-10
2.652330538e-10
2.653227926e-10
2.653618826e-10
1.052503793e-05
1.079398153e-06
2.656472464e-07
1.92150066e-06
4.001031699e-06
4.439672226e-06
1.645434136e-06
2.459850822e-07
4.715978214e-08
1.318042533e-08
4.392395162e-09
1.620720991e-09
6.999943029e-10
3.978754983e-10
3.022396239e-10
2.732327095e-10
2.650542777e-10
2.632576653e-10
2.630887791e-10
2.632972169e-10
2.635449831e-10
2.637556206e-10
2.639229093e-10
2.640556931e-10
2.641631563e-10
2.642520966e-10
2.643272743e-10
2.643920808e-10
2.644489478e-10
2.644995997e-10
2.645452638e-10
2.645868179e-10
2.646249154e-10
2.646600522e-10
2.646926196e-10
2.647229322e-10
2.647512493e-10
2.647777855e-10
2.64802723e-10
2.648262172e-10
2.648484012e-10
2.648693896e-10
2.648892821e-10
2.649081668e-10
2.649261183e-10
2.649432074e-10
2.649594928e-10
2.649750377e-10
2.649899094e-10
2.65004206e-10
2.650181056e-10
2.650320539e-10
2.650470112e-10
2.650651758e-10
2.650906012e-10
2.651293491e-10
2.651873538e-10
2.652656427e-10
2.653476343e-10
2.653749036e-10
1.795161178e-05
1.752836894e-06
2.699015689e-07
1.592994019e-06
4.912251711e-06
6.541334141e-06
3.843986736e-06
6.93588506e-07
1.130077309e-07
2.531461472e-08
7.230587607e-09
2.370911835e-09
9.101152636e-10
4.592800896e-10
3.207731767e-10
2.788258689e-10
2.666109401e-10
2.635962636e-10
2.630682485e-10
2.631846622e-10
2.634202476e-10
2.63641617e-10
2.638254961e-10
2.63975326e-10
2.640982713e-10
2.642003377e-10
2.64286148e-10
2.643593542e-10
2.644228237e-10
2.644787261e-10
2.64528645e-10
2.64573718e-10
2.646147744e-10
2.646524306e-10
2.646871636e-10
2.647193513e-10
2.647493014e-10
2.647772688e-10
2.648034665e-10
2.64828076e-10
2.64851251e-10
2.64873123e-10
2.64893805e-10
2.649133972e-10
2.649319848e-10
2.649496507e-10
2.649664615e-10
2.649824904e-10
2.649978196e-10
2.650125782e-10
2.650270065e-10
2.650416668e-10
2.65057727e-10
2.650776198e-10
2.651054524e-10
2.651467848e-10
2.652063335e-10
2.652832886e-10
2.653600742e-10
2.653773806e-10
2.300905275e-05
2.696513301e-06
3.450307862e-07
1.027296038e-06
6.003354967e-06
9.140377086e-06
7.112926378e-06
1.831738907e-06
2.675418714e-07
4.928960746e-08
1.162259965e-08
3.324286462e-09
1.145811094e-09
5.253038069e-10
3.412917287e-10
2.854784075e-10
2.686650906e-10
2.641441839e-10
2.631286067e-10
2.631013672e-10
2.633043002e-10
2.635273568e-10
2.637232302e-10
2.638877788e-10
2.640253959e-10
2.641407901e-10
2.642379527e-10
2.643203941e-10
2.643911936e-10
2.644528922e-10
2.645074453e-10
2.645562935e-10
2.646004826e-10
2.646407813e-10
2.646777695e-10
2.647119007e-10
2.647435364e-10
2.647729757e-10
2.648004643e-10
2.648262117e-10
2.648503933e-10
2.648731586e-10
2.64894636e-10
2.649149387e-10
2.649341653e-10
2.64952409e-10
2.64969746e-10
2.649862616e-10
2.650020563e-10
2.650173003e-10
2.650323098e-10
2.650477702e-10
2.650650531e-10
2.650867813e-10
2.651169921e-10
2.651607087e-10
2.652215424e-10
2.652971911e-10
2.653693997e-10
2.653765578e-10
3.243747999e-05
4.254368701e-06
4.004358302e-07
8.238991463e-07
7.613471781e-06
1.249209608e-05
1.147737341e-05
4.272636057e-06
6.266719475e-07
9.99041637e-08
1.90448307e-08
4.61849491e-09
1.419383731e-09
5.969623638e-10
3.638137007e-10
2.931364284e-10
2.711962346e-10
2.649077417e-10
2.632860087e-10
2.630639089e-10
2.632114863e-10
2.634248301e-10
2.636260172e-10
2.638010101e-10
2.639507261e-10
2.640782393e-10
2.641865236e-10
2.642785158e-10
2.643571498e-10
2.644251252e-10
2.644846894e-10
2.645375792e-10
2.645850817e-10
2.646281429e-10
2.646674688e-10
2.647036013e-10
2.647369663e-10
2.647679093e-10
2.647967124e-10
2.648236135e-10
2.648488113e-10
2.648724755e-10
2.648947517e-10
2.649157676e-10
2.649356344e-10
2.649544542e-10
2.649723158e-10
2.649893194e-10
2.650055899e-10
2.650213499e-10
2.650370014e-10
2.650533544e-10
2.650719639e-10
2.650955802e-10
2.65128089e-10
2.65173935e-10
2.652356963e-10
2.653098394e-10
2.653775896e-10
2.65373922e-10
4.547055749e-05
6.669419366e-06
9.316115788e-07
1.081077039e-06
1.019022695e-05
1.699380781e-05
1.635579475e-05
8.302216394e-06
1.458638356e-06
2.147724045e-07
3.188072322e-08
6.252385715e-09
1.698579397e-09
6.665928441e-10
3.867806896e-10
3.014224772e-10
2.741102221e-10
2.658696627e-10
2.63547589e-10
2.630852119e-10
2.631546032e-10
2.63345445e-10
2.635435808e-10
2.63722941e-10
2.638803336e-10
2.640170167e-10
2.641347639e-10
2.642356194e-10
2.643219866e-10
2.643964021e-10
2.64461206e-10
2.645183401e-10
2.645693074e-10
2.646152359e-10
2.646569691e-10
2.646951485e-10
2.647302724e-10
2.647627372e-10
2.64792866e-10
2.648209262e-10
2.648471421e-10
2.648717053e-10
2.648947791e-10
2.649165057e-10
2.649370084e-10
2.649563997e-10
2.649747838e-10
2.649922807e-10
2.650090461e-10
2.650253636e-10
2.650417284e-10
2.650590738e-10
2.650791046e-10
2.651046237e-10
2.651393142e-10
2.651870241e-10
2.652493683e-10
2.653218159e-10
2.65385211e-10
2.653710678e-10
6.280905369e-05
8.194280891e-06
1.45616921e-06
1.715743668e-06
1.505412819e-05
2.345252803e-05
2.182103212e-05
1.285388588e-05
3.120145153e-06
4.815857522e-07
5.705245266e-08
8.588793636e-09
2.010820864e-09
7.404963915e-10
4.116930961e-10
3.105654029e-10
2.774214948e-10
2.670271085e-10
2.6391733e-10
2.631726996e-10
2.631420685e-10
2.632977959e-10
2.6348407e-10
2.636608795e-10
2.638203645e-10
2.63961907e-10
2.640860951e-10
2.641939647e-10
2.64287115e-10
2.643675903e-10
2.644375492e-10
2.644989625e-10
2.645534592e-10
2.646023126e-10
2.64646494e-10
2.646867455e-10
2.647236403e-10
2.64757631e-10
2.647890838e-10
2.648182987e-10