/*--------------------------------*- C++ -*----------------------------------*\
  =========                 |
  \\      /  F ield         | OpenFOAM: The Open Source CFD Toolbox
   \\    /   O peration     | Website:  https://openfoam.org
    \\  /    A nd           | Version:  10
     \\/     M anipulation  |
\*---------------------------------------------------------------------------*/
FoamFile
{
    format      ascii;
    class       volScalarField;
    location    "0.02498436188";
    object      C2H6_0;
}
// * * * * * * * * * * * * * * * * * * * * * * * * * * * * * * * * * * * * * //

dimensions      [0 0 0 0 0 0 0];

internalField   nonuniform List<scalar> 
5170
(
2.895234792e-10
2.890244722e-10
2.857097433e-10
2.621855778e-10
2.017385256e-11
5.786085399e-10
5.770562321e-10
5.700285113e-10
5.340783016e-10
3.297929389e-10
8.650406775e-10
8.624701484e-10
8.522279466e-10
8.094023566e-10
6.405422254e-10
1.147888353e-09
1.144419659e-09
1.131793395e-09
1.086289538e-09
9.521236055e-10
1.427110985e-09
1.422901142e-09
1.408800875e-09
1.363976104e-09
1.263911983e-09
1.702828261e-09
1.698148618e-09
1.683506026e-09
1.642414776e-09
1.576004517e-09
1.975421406e-09
1.970510857e-09
1.956232228e-09
1.921847045e-09
1.888677029e-09
2.245438873e-09
2.240636158e-09
2.22758494e-09
2.20236119e-09
2.202221263e-09
2.513285021e-09
2.508862899e-09
2.497968839e-09
2.484284717e-09
2.516872746e-09
2.779361094e-09
2.775518277e-09
2.767399111e-09
2.7679001e-09
2.832834018e-09
3.043853585e-09
3.040805752e-09
3.036033797e-09
3.053274036e-09
3.150016144e-09
3.306760708e-09
3.304769754e-09
3.304499206e-09
3.340281939e-09
3.468032415e-09
3.568150315e-09
3.567477642e-09
3.572992938e-09
3.628898652e-09
3.786530312e-09
3.828090018e-09
3.829012933e-09
3.841465797e-09
3.919070293e-09
4.105180675e-09
4.086620733e-09
4.089476031e-09
4.109966429e-09
4.210628099e-09
4.423621427e-09
4.343740601e-09
4.348907187e-09
4.378936824e-09
4.503636892e-09
4.741147422e-09
4.599531374e-09
4.607429435e-09
4.6481569e-09
4.797589093e-09
5.058099915e-09
4.854118238e-09
4.865241265e-09
4.91852075e-09
5.093126915e-09
5.374245904e-09
5.108155983e-09
5.124678781e-09
5.204564617e-09
5.493408103e-09
6.10663844e-09
5.517217473e-09
6.254436415e-09
1.244681947e-08
5.506351464e-08
2.449672614e-07
1.814706672e-28
0
0
0
0
4.601579588e-29
0
0
2.269060041e-29
4.986215396e-29
0
4.457701082e-28
0
1.255129567e-26
9.346263002e-28
7.411189219e-26
0
2.601459361e-26
4.111408544e-25
3.122970692e-23
0
0
0
3.750960099e-22
1.125587683e-22
0
0
0
0
0
6.742775285e-18
0
0
3.114199079e-16
6.515223926e-16
5.94533291e-16
4.663719528e-17
0
0
4.17843179e-17
6.438381861e-17
0
0
0
0
0
0
0
0
0
0
0
0
0
0
0
0
0
0
0
0
0
0
0
0
0
0
0
0
0
0
0
0
0
0
0
0
0
0
0
0
0
0
0
0
0
0
0
0
0
1.3471172e-08
0
0
0
0
3.657310967e-06
1.603112609e-07
3.029087391e-08
5.280575007e-10
9.313941927e-12
1.153526889e-08
5.188505872e-08
7.196813289e-07
1.065674932e-05
0.0001413776296
3.966888525e-08
2.359703228e-07
2.845878359e-06
3.029427946e-05
0.0002347657659
1.234044613e-07
7.275078322e-07
7.364987681e-06
5.985916425e-05
0.0003183810692
3.235398619e-07
1.780058653e-06
1.529257507e-05
9.855231025e-05
0.0003878213729
7.482421565e-07
3.78809043e-06
2.789747715e-05
0.0001435922612
0.0004410166204
1.604151932e-06
7.497949413e-06
4.657663185e-05
0.0001913479566
0.0004846898071
3.232440897e-06
1.388252011e-05
7.187391255e-05
0.0002400278159
0.0005273368495
6.151046457e-06
2.402243167e-05
0.0001034368514
0.0002887410587
0.0005694085867
1.119841968e-05
3.928273886e-05
0.0001405051036
0.0003361757658
0.0006075055239
1.965359193e-05
6.091781578e-05
0.0001819769298
0.0003824550454
0.0006432351674
3.350458584e-05
9.036040901e-05
0.0002270428548
0.0004277896905
0.0006772198547
5.6615143e-05
0.000128382847
0.0002745015217
0.0004727459866
0.0007104511632
9.337949852e-05
0.0001745653638
0.0003241824399
0.0005174335471
0.0007426199398
0.0001424949572
0.000227393858
0.0003756403402
0.0005615298173
0.0007732185865
0.0002070594117
0.0002883852789
0.000430220286
0.0006064256681
0.0008046328401
0.0002821111461
0.0003564425844
0.0004891793978
0.0006546660014
0.0008400374798
0.0003688242689
0.0004349858403
0.0005565672889
0.0007099681143
0.000882383789
0.0004694176016
0.000526589262
0.0006357944561
0.000777466498
0.0009395218942
0.0005790804822
0.0006294691223
0.000729556055
0.0008639113668
0.001021010639
0.000699668204
0.000744779102
0.0008357166591
0.0009585520025
0.001101917453
0.0008229386602
0.0008582261597
0.0009281680726
0.001019035196
0.001118716412
0.0009059166994
0.0009237259055
0.0009586285539
0.001002039507
0.001045583515
0.0008875353136
0.0008924896475
0.0009013403922
0.0009102276747
0.0009151142052
0.0007884073528
0.0007873160697
0.0007838498708
0.0007766675002
0.0007643631529
0.0006553522448
0.0006524013908
0.0006453183562
0.0006339153694
0.0006180857273
0.0005228461875
0.0005199129475
0.0005131863734
0.0005027573784
0.0004887918359
0.0004145892462
0.0004122092138
0.0004067460034
0.000398369864
0.000387318634
0.0003269167405
0.0003250888199
0.0003209152056
0.0003145526677
0.0003062100575
0.0002568714949
0.0002555093412
0.0002524086192
0.0002476922081
0.0002415202154
0.0002007895304
0.000199792936
0.0001975261114
0.0001940787968
0.0001895673705
0.0001555519216
0.0001548341364
0.0001531996626
0.0001507108734
0.000147450035
0.00011882986
0.0001183215926
0.0001171604885
0.0001153882796
0.0001130622046
8.900467202e-05
8.865204571e-05
8.784249453e-05
8.660278545e-05
8.49722875e-05
6.501773646e-05
6.47794745e-05
6.422866862e-05
6.338175382e-05
6.226547216e-05
4.615635579e-05
4.600045545e-05
4.563696173e-05
4.507539143e-05
4.433355617e-05
3.181785445e-05
3.171945732e-05
3.148764785e-05
3.112758331e-05
3.065083518e-05
2.135368113e-05
2.129374201e-05
2.115089092e-05
2.092769119e-05
2.06314433e-05
1.404154373e-05
1.400613806e-05
1.392069722e-05
1.378637581e-05
1.360764302e-05
9.144843342e-06
9.12432273e-06
9.074229508e-06
8.995021471e-06
8.889355681e-06
5.990583393e-06
5.978688799e-06
5.949407573e-06
5.902904441e-06
5.840721521e-06
4.022715826e-06
4.015618848e-06
3.998128829e-06
3.970311717e-06
3.933047487e-06
2.820681419e-06
2.816187844e-06
2.805206599e-06
2.787787396e-06
2.764431969e-06
2.090334393e-06
2.087250982e-06
2.079844466e-06
2.068172108e-06
2.052525276e-06
1.639840893e-06
1.637549346e-06
1.632156359e-06
1.623728493e-06
1.612442157e-06
1.351530404e-06
1.349716552e-06
1.345526272e-06
1.339029998e-06
1.33034112e-06
1.15679333e-06
1.155296149e-06
1.151885359e-06
1.146630431e-06
1.139609374e-06
1.017062798e-06
1.015794513e-06
1.012932806e-06
1.008543044e-06
1.002682335e-06
9.110375176e-07
9.099457284e-07
9.074977535e-07
9.037535696e-07
8.987570992e-07
8.268886142e-07
8.259386225e-07
8.238175768e-07
8.205796841e-07
8.162599455e-07
7.578079822e-07
7.56974997e-07
7.55120363e-07
7.522928164e-07
7.485209177e-07
6.995537905e-07
6.988164537e-07
6.971811932e-07
6.946917269e-07
6.913716028e-07
6.502719602e-07
6.496191525e-07
6.481714945e-07
6.45968353e-07
6.430295907e-07
6.078217618e-07
6.07239352e-07
6.059495529e-07
6.039877047e-07
6.013705914e-07
5.710090919e-07
5.704862639e-07
5.693298335e-07
5.675717499e-07
5.652262728e-07
5.389740591e-07
5.385013713e-07
5.374570937e-07
5.358703123e-07
5.337532243e-07
5.111024904e-07
5.106712221e-07
5.097196283e-07
5.082744875e-07
5.063463316e-07
4.869403927e-07
4.865421524e-07
4.856646632e-07
4.843329673e-07
4.825562906e-07
4.660489977e-07
4.656758932e-07
4.648550603e-07
4.636103745e-07
4.619501063e-07
4.478124818e-07
4.474580332e-07
4.466794396e-07
4.454998241e-07
4.439268081e-07
4.313006428e-07
4.309611029e-07
4.302161128e-07
4.290881629e-07
4.275844282e-07
4.153213928e-07
4.149963786e-07
4.142835319e-07
4.132044989e-07
4.117662038e-07
3.986955777e-07
3.98388204e-07
3.977136351e-07
3.966921612e-07
3.953304081e-07
3.806903434e-07
3.804056222e-07
3.797798326e-07
3.788314039e-07
3.775667867e-07
3.612818988e-07
3.610231073e-07
3.604530727e-07
3.595879485e-07
3.584335186e-07
3.410519461e-07
3.408209866e-07
3.40311126e-07
3.395362995e-07
3.385018089e-07
3.21042146e-07
3.208383592e-07
3.203876937e-07
3.197021497e-07
3.187865295e-07
3.024008109e-07
3.022213849e-07
3.018240949e-07
3.01219005e-07
3.004100113e-07
2.85783108e-07
2.856198044e-07
2.852584668e-07
2.847085738e-07
2.839740147e-07
2.713005422e-07
2.711490554e-07
2.708141115e-07
2.703043483e-07
2.696226781e-07
2.595951319e-07
2.59452478e-07
2.591373899e-07
2.586582057e-07
2.580176504e-07
0.0004922031868
0.0005938935972
0.0006738520355
0.0007116486246
0.000728534005
0.0007454565229
0.0007713784286
0.0007987669847
0.0008198680368
0.0008411944899
0.0008619086151
0.0008832028105
0.0009033702351
0.0009215109883
0.0009422212855
0.0009684681273
0.001002326884
0.001052705939
0.001132339739
0.00120235759
0.001183534491
0.001070403729
0.0009144504481
0.0007532846341
0.0006056522892
0.0004781141206
0.0003790133335
0.0002999761275
0.0002369190005
0.0001862103441
0.0001450306734
0.0001113451483
8.377821421e-05
6.145711174e-05
4.380408001e-05
3.031645721e-05
2.042770962e-05
1.348720861e-05
8.81944022e-06
5.800037701e-06
3.90862139e-06
2.748828089e-06
2.041715221e-06
1.604338134e-06
1.323884482e-06
1.134255062e-06
9.981319188e-07
8.948304217e-07
8.128367495e-07
7.455138341e-07
6.887113328e-07
6.406670529e-07
5.992597901e-07
5.63328896e-07
5.320356505e-07
5.047774356e-07
4.81106186e-07
4.605907242e-07
4.426351632e-07
4.263471912e-07
4.105823049e-07
3.942109693e-07
3.76530589e-07
3.574907734e-07
3.376604003e-07
3.180441824e-07
2.997543035e-07
2.833782252e-07
2.690682798e-07
2.574958677e-07
0.001098059927
8.179743181e-05
2.391250437e-06
5.860598171e-08
1.108668895e-09
0.001218603721
0.001173126535
6.790195743e-05
2.043033013e-06
4.670152621e-08
0.001304281503
0.001918226569
0.000175313604
9.087327609e-06
2.744427322e-07
0.001268021626
0.001781398781
0.0002202929072
1.711740449e-05
8.171361653e-07
0.001210745068
0.001647977089
0.0003572727113
3.612796515e-05
2.57882584e-06
0.001177476561
0.001617069288
0.0007304201747
9.049176426e-05
8.18839722e-06
0.001172603381
0.001637786067
0.001105854798
0.0001587138805
1.775629254e-05
0.001170189457
0.001619246535
0.001351593684
0.0002184247292
2.842668317e-05
0.001156750178
0.001553931542
0.001387623698
0.0002581070833
3.868887316e-05
0.001152644807
0.00153269947
0.001481481047
0.0003520209998
5.777028231e-05
0.001149128699
0.001508960279
0.001519048627
0.0004722937033
8.449606197e-05
0.001149596044
0.001482294324
0.001507419103
0.0006158632676
0.0001184132544
0.001148607216
0.001444543424
0.001482426415
0.00074768877
0.0001548622855
0.001145447866
0.001414879514
0.001472495457
0.0008788157942
0.0002010070787
0.001149325089
0.001404432689
0.001474695873
0.0009853741376
0.0002597802912
0.001161209509
0.001404346785
0.001478973313
0.001070801737
0.000330278881
0.001181982436
0.001413054413
0.001491594675
0.001135209593
0.0003967998595
0.0012214448
0.001437811158
0.001505711448
0.001125343037
0.0003849934897
0.001296250965
0.001502450402
0.001521195849
0.001010326946
0.0002945639581
0.001348843503
0.00153036611
0.001575686847
0.001268628886
0.0003911547926
0.001278285285
0.001373625329
0.001379679683
0.001256792847
0.0009979401974
0.001108412171
0.001119732679
0.001067461516
0.0009470675
0.0007754779085
0.0009166788726
0.000885563025
0.0008166863285
0.0007165279039
0.0005985249258
0.0007408117339
0.0006992826164
0.0006370637873
0.0005602424593
0.0004769193341
0.0005908862982
0.0005533480852
0.0005034939269
0.0004459262444
0.0003854256696
0.0004652390455
0.0004353810991
0.0003977052681
0.0003554151002
0.0003115070302
0.0003689945735
0.0003463359907
0.0003182187533
0.0002869122717
0.0002544278504
0.0002924656678
0.0002756031126
0.0002547559667
0.0002315357354
0.0002073352957
0.0002314023394
0.000218972343
0.0002035546269
0.0001863007962
0.0001681968983
0.0001822274606
0.0001731435275
0.0001617831776
0.000148974575
0.0001354258799
0.0001422134723
0.0001356498219
0.0001273363225
0.0001178718449
0.0001077698045
0.000109404642
0.0001047347063
9.871689163e-05
9.178641673e-05
8.431781522e-05
8.248741942e-05
7.9233903e-05
7.494812227e-05
6.99471566e-05
6.450466317e-05
6.063623052e-05
5.843150474e-05
5.544800441e-05
5.191562773e-05
4.803299477e-05
4.331007246e-05
4.186582686e-05
3.98481199e-05
3.742101569e-05
3.47261901e-05
3.003746133e-05
2.912591515e-05
2.780516244e-05
2.618926847e-05
2.437658857e-05
2.028057501e-05
1.972572314e-05
1.888903582e-05
1.784725353e-05
1.666641765e-05
1.341453772e-05
1.308678282e-05
1.25718241e-05
1.191946731e-05
1.117248463e-05
8.784965764e-06
8.594597203e-06
8.28404682e-06
7.884488406e-06
7.422643136e-06
5.782999236e-06
5.671861214e-06
5.485752625e-06
5.243530921e-06
4.961341188e-06
3.89843814e-06
3.831216874e-06
3.71812264e-06
3.570238e-06
3.397052013e-06
2.740853024e-06
2.697410999e-06
2.626038417e-06
2.533123062e-06
2.424144497e-06
2.034328665e-06
2.003820842e-06
1.956061107e-06
1.894713067e-06
1.822933523e-06
1.597215955e-06
1.5740559e-06
1.539851227e-06
1.496733738e-06
1.446554477e-06
1.317114989e-06
1.29848295e-06
1.272391564e-06
1.240126593e-06
1.202816568e-06
1.127971211e-06
1.112415146e-06
1.091503572e-06
1.066054314e-06
1.036794975e-06
9.924047558e-07
9.791232503e-07
9.617704568e-07
9.408993608e-07
9.170088174e-07
8.896670388e-07
8.78169387e-07
8.634314891e-07
8.45848527e-07
8.257821649e-07
8.082051521e-07
7.981579047e-07
7.854435905e-07
7.703578118e-07
7.531746577e-07
7.41363638e-07
7.325207338e-07
7.214307793e-07
7.083222482e-07
6.934097304e-07
6.8498431e-07
6.77152858e-07
6.674001651e-07
6.559060172e-07
6.42841067e-07
6.373197206e-07
6.303517548e-07
6.217171133e-07
6.115606957e-07
6.000211694e-07
5.962398127e-07
5.900053845e-07
5.823125541e-07
5.732785711e-07
5.630167613e-07
5.60590212e-07
5.549787557e-07
5.480813071e-07
5.399930259e-07
5.308069016e-07
5.295354249e-07
5.24449368e-07
5.182211802e-07
5.109281191e-07
5.026466897e-07
5.024737685e-07
4.978226011e-07
4.921497898e-07
4.855178417e-07
4.779897363e-07
4.7895707e-07
4.746538597e-07
4.694297016e-07
4.63334887e-07
4.564213488e-07
4.585562561e-07
4.545194797e-07
4.496446369e-07
4.439720905e-07
4.375449777e-07
4.406843971e-07
4.368474051e-07
4.322382561e-07
4.268897184e-07
4.208382204e-07
4.24466574e-07
4.207907096e-07
4.16392633e-07
4.112998478e-07
4.055446643e-07
4.087798205e-07
4.052630037e-07
4.010605302e-07
3.961979053e-07
3.907060696e-07
3.925137485e-07
3.891897055e-07
3.852086438e-07
3.805976653e-07
3.75387509e-07
3.74974168e-07
3.718939856e-07
3.681860208e-07
3.638738219e-07
3.589898564e-07
3.560929467e-07
3.532937405e-07
3.498950286e-07
3.459278777e-07
3.414245881e-07
3.364297352e-07
3.339319904e-07
3.308748791e-07
3.272908248e-07
3.232118493e-07
3.169702218e-07
3.147664041e-07
3.120510026e-07
3.088550639e-07
3.052073407e-07
2.988089906e-07
2.968565864e-07
2.944420059e-07
2.915845862e-07
2.883085332e-07
2.825165812e-07
2.807397843e-07
2.785454967e-07
2.759455935e-07
2.729650631e-07
2.682619809e-07
2.666110944e-07
2.645774088e-07
2.621812364e-07
2.594419672e-07
2.567328449e-07
2.551825203e-07
2.532804569e-07
2.510446588e-07
2.484985361e-07
5.006411596e-10
2.842733841e-09
5.794647078e-10
1.76244323e-10
9.819737018e-11
7.518414152e-11
6.675047874e-11
6.357888274e-11
6.243356863e-11
6.20415294e-11
6.190971739e-11
6.185449554e-11
6.181992001e-11
6.179309207e-11
6.177509242e-11
6.177464012e-11
6.175939696e-11
6.172959987e-11
6.171581111e-11
6.170709906e-11
6.169860016e-11
6.168988203e-11
6.168124401e-11
6.16729621e-11
6.166521777e-11
6.165813919e-11
6.16516537e-11
6.1645638e-11
6.16401159e-11
6.163513305e-11
6.163054894e-11
6.162623279e-11
6.162217135e-11
6.161838465e-11
6.161498286e-11
6.161191875e-11
6.160914708e-11
6.160660483e-11
6.16043047e-11
6.160220126e-11
6.160027347e-11
6.159850599e-11
6.159682439e-11
6.159515686e-11
6.159364495e-11
6.159251468e-11
6.159163925e-11
6.159094879e-11
6.159034625e-11
6.15898729e-11
6.158947829e-11
6.158919963e-11
6.15889459e-11
6.158868866e-11
6.158638529e-11
6.156675613e-11
6.143796578e-11
6.082872638e-11
5.866994074e-11
5.585204158e-11
1.09825934e-08
2.181475821e-08
2.691310349e-09
5.275775942e-10
2.389696909e-10
1.71933245e-10
1.49284702e-10
1.401203253e-10
1.362341645e-10
1.346001459e-10
1.339267966e-10
1.336369809e-10
1.334883431e-10
1.333867413e-10
1.333093893e-10
1.332635638e-10
1.33214e-10
1.331580105e-10
1.331313898e-10
1.331122956e-10
1.330921577e-10
1.330703325e-10
1.330483527e-10
1.330273808e-10
1.330086992e-10
1.329920407e-10
1.329764088e-10
1.329621405e-10
1.32950333e-10
1.329403407e-10
1.329311156e-10
1.329222307e-10
1.329142319e-10
1.329080382e-10
1.329035575e-10
1.328996868e-10
1.328963626e-10
1.328930023e-10
1.328907745e-10
1.328881842e-10
1.328871571e-10
1.328871178e-10
1.328862987e-10
1.328858292e-10
1.328847313e-10
1.328847834e-10
1.328848036e-10
1.328861345e-10
1.328875444e-10
1.328890039e-10
1.328902852e-10
1.328921893e-10
1.328933488e-10
1.328955883e-10
1.32893012e-10
1.328698545e-10
1.327549625e-10
1.323845355e-10
1.317912793e-10
1.316078219e-10
5.511021549e-08
4.525929355e-08
7.617578352e-09
1.382397714e-09
5.011104137e-10
3.077764752e-10
2.440163509e-10
2.166849662e-10
2.035752822e-10
1.972764474e-10
1.943772172e-10
1.931061387e-10
1.925502236e-10
1.922709794e-10
1.920886626e-10
1.919524355e-10
1.918639846e-10
1.91822492e-10
1.918053833e-10
1.917874895e-10
1.9175987e-10
1.917247766e-10
1.916874722e-10
1.916517715e-10
1.916195183e-10
1.915906591e-10
1.915651488e-10
1.915426706e-10
1.915229168e-10
1.915059996e-10
1.914915058e-10
1.914790448e-10
1.914692786e-10
1.914618884e-10
1.914560131e-10
1.914518572e-10
1.914494868e-10
1.91447477e-10
1.914461269e-10
1.91444729e-10
1.914452652e-10
1.914466645e-10
1.91448504e-10
1.914516708e-10
1.914547483e-10
1.914590311e-10
1.914628782e-10
1.91468378e-10
1.914733493e-10
1.914793534e-10
1.914849672e-10
1.914921616e-10
1.914976777e-10
1.915057689e-10
1.915098969e-10
1.915126758e-10
1.915180105e-10
1.916530007e-10
1.924984916e-10
1.93761025e-10
1.513010493e-07
1.615414179e-07
5.947687347e-08
8.642978354e-09
2.017436495e-09
8.354157702e-10
4.937364016e-10
3.542143303e-10
2.880496768e-10
2.559631285e-10
2.409154032e-10
2.343033247e-10
2.316119266e-10
2.305667956e-10
2.301307977e-10
2.298955323e-10
2.298148691e-10
2.298610419e-10
2.299096812e-10
2.299359477e-10
2.299359066e-10
2.299182834e-10
2.298931424e-10
2.298671704e-10
2.298436328e-10
2.298229065e-10
2.298051317e-10
2.297902664e-10
2.297778913e-10
2.297680389e-10
2.297604592e-10
2.297548461e-10
2.297515878e-10
2.297503547e-10
2.297505939e-10
2.297527004e-10
2.297564053e-10
2.297604261e-10
2.297647628e-10
2.297693717e-10
2.297751113e-10
2.297813152e-10
2.2978822e-10
2.29796168e-10
2.298044181e-10
2.298135508e-10
2.298224367e-10
2.298322232e-10
2.298413896e-10
2.298518159e-10
2.298619493e-10
2.298734455e-10
2.298834054e-10
2.298964314e-10
2.299095524e-10
2.299409183e-10
2.300408184e-10
2.304390536e-10
2.316481495e-10
2.330067101e-10
2.437527701e-07
3.325970831e-07
3.568425387e-07
7.771655646e-08
1.295340373e-08
3.630137355e-09
1.532942599e-09
8.128719349e-10
5.032814696e-10
3.606702386e-10
2.955337633e-10
2.672502234e-10
2.55876098e-10
2.516632257e-10
2.50213584e-10
2.497088792e-10
2.496398243e-10
2.498060429e-10
2.499554684e-10
2.50056586e-10
2.5011144e-10
2.501356645e-10
2.501444265e-10
2.501474171e-10
2.501492236e-10
2.501513273e-10
2.501542464e-10
2.501581328e-10
2.501629426e-10
2.501687508e-10
2.501754235e-10
2.501828791e-10
2.501913263e-10
2.502006557e-10
2.502105879e-10
2.502213743e-10
2.502327965e-10
2.502441547e-10
2.502553729e-10
2.502666445e-10
2.502782441e-10
2.502897702e-10
2.503015215e-10
2.503136351e-10
2.503258102e-10
2.503383142e-10
2.50350656e-10
2.503631593e-10
2.503751739e-10
2.503879163e-10
2.504004434e-10
2.504137474e-10
2.504261705e-10
2.504411907e-10
2.504596928e-10
2.505024499e-10
2.506238981e-10
2.510041654e-10
2.519116329e-10
2.528021825e-10
4.534923473e-07
3.905581908e-07
7.594705218e-07
4.273638814e-07
7.313071464e-08
1.466392069e-08
4.73151793e-09
2.029017784e-09
1.014075435e-09
5.788592425e-10
3.882054251e-10
3.074851712e-10
2.75387434e-10
2.636043666e-10
2.596480653e-10
2.584194802e-10
2.582306012e-10
2.584658151e-10
2.587025222e-10
2.588783712e-10
2.589912291e-10
2.590601627e-10
2.591045826e-10
2.591372244e-10
2.591643283e-10
2.591886272e-10
2.592112976e-10
2.592328187e-10
2.592534352e-10
2.592734135e-10
2.59292782e-10
2.59311629e-10
2.593301323e-10
2.593483379e-10
2.593661539e-10
2.593837522e-10
2.594010688e-10
2.594178871e-10
2.594342e-10
2.594501611e-10
2.594658724e-10
2.594811288e-10
2.59496116e-10
2.595108525e-10
2.595252266e-10
2.595394344e-10
2.595534008e-10
2.595671877e-10
2.595804958e-10
2.595938307e-10
2.596068241e-10
2.596200791e-10
2.596329638e-10
2.596478736e-10
2.596675719e-10
2.597082517e-10
2.598089e-10
2.600693115e-10
2.605850778e-10
2.610405257e-10
1.101508471e-06
3.305503028e-07
9.516828734e-07
1.125337325e-06
3.725916862e-07
5.941120416e-08
1.400736273e-08
4.932538669e-09
2.122372178e-09
1.023037436e-09
5.640388131e-10
3.74876799e-10
3.008092848e-10
2.738174156e-10
2.647677643e-10
2.619839257e-10
2.614044816e-10
2.616027804e-10
2.618836952e-10
2.621162923e-10
2.622794451e-10
2.623882887e-10
2.624636896e-10
2.625208021e-10
2.625679458e-10
2.626091787e-10
2.626464079e-10
2.626805984e-10
2.627123513e-10
2.627420782e-10
2.627700425e-10
2.62796488e-10
2.628216182e-10
2.628455855e-10
2.628684598e-10
2.628903802e-10
2.629114056e-10
2.629315411e-10
2.629508436e-10
2.629694204e-10
2.629873415e-10
2.63004564e-10
2.630211961e-10
2.630372577e-10
2.630527226e-10
2.630676856e-10
2.630821697e-10
2.630962619e-10
2.631098715e-10
2.631231482e-10
2.631359891e-10
2.631487658e-10
2.63161454e-10
2.631758757e-10
2.631952782e-10
2.632311443e-10
2.633071491e-10
2.634683819e-10
2.637348345e-10
2.639444752e-10
2.14318524e-06
2.389545509e-07
8.763584722e-07
1.665862764e-06
1.233355931e-06
2.581058807e-07
4.425257171e-08
1.223488731e-08
4.531034002e-09
1.921299175e-09
9.031210501e-10
4.985366223e-10
3.436683476e-10
2.880459551e-10
2.69547011e-10
2.638799974e-10
2.625085971e-10
2.625359013e-10
2.628086178e-10
2.630740815e-10
2.632759665e-10
2.634186533e-10
2.635207372e-10
2.635983353e-10
2.636614655e-10
2.637155183e-10
2.637633054e-10
2.638063709e-10
2.638456835e-10
2.638818969e-10
2.639154782e-10
2.639467969e-10
2.639761393e-10
2.640037435e-10
2.640297808e-10
2.640544184e-10
2.64077782e-10
2.640999679e-10
2.641210742e-10
2.641411994e-10
2.641604206e-10
2.641787726e-10
2.641963358e-10
2.64213165e-10
2.642292915e-10
2.642447642e-10
2.642595981e-10
2.642738657e-10
2.642875834e-10
2.643008272e-10
2.643136277e-10
2.643262552e-10
2.643390228e-10
2.643535776e-10
2.643732999e-10
2.644069027e-10
2.644687344e-10
2.645775719e-10
2.647285202e-10
2.648298023e-10
3.53771203e-06
2.697513751e-07
6.627768279e-07
1.901169258e-06
2.359792414e-06
1.017601515e-06
1.586483626e-07
3.216574976e-08
9.908500745e-09
3.713494471e-09
1.535952814e-09
7.18725845e-10
4.169270989e-10
3.110825608e-10
2.76388724e-10
2.65824325e-10
2.630735525e-10
2.627599453e-10
2.629682107e-10
2.632425163e-10
2.634711431e-10
2.636418295e-10
2.637678002e-10
2.638642222e-10
2.639418606e-10
2.640071672e-10
2.640638509e-10
2.641141215e-10
2.64159384e-10
2.64200583e-10
2.642384005e-10
2.642733424e-10
2.643057982e-10
2.643360861e-10
2.6436445e-10
2.643911035e-10
2.644162176e-10
2.644399367e-10
2.644623861e-10
2.64483678e-10
2.645039068e-10
2.64523145e-10
2.645414723e-10
2.645589552e-10
2.645756513e-10
2.645916162e-10
2.646068827e-10
2.646215008e-10
2.646355062e-10
2.646489653e-10
2.646619778e-10
2.646748338e-10
2.646880875e-10
2.647034465e-10
2.64724514e-10
2.647586214e-10
2.648155005e-10
2.649032554e-10
2.650095552e-10
2.650676881e-10
6.280053293e-06
4.810625484e-07
3.960883973e-07
2.000017177e-06
3.194659583e-06
2.538295555e-06
5.755369603e-07
8.703293806e-08
2.142939618e-08
7.040581381e-09
2.619282066e-09
1.076827544e-09
5.321688163e-10
3.46629776e-10
2.868108661e-10
2.686690379e-10
2.63735121e-10
2.628472111e-10
2.629199316e-10
2.631782998e-10
2.634226276e-10
2.636158895e-10
2.637635317e-10
2.63878244e-10
2.639704568e-10
2.640471207e-10
2.641126487e-10
2.641699004e-10
2.642207847e-10
2.642666038e-10
2.643082848e-10
2.643464982e-10
2.643817544e-10
2.644144532e-10
2.644449102e-10
2.644733863e-10
2.645000959e-10
2.645252179e-10
2.645489052e-10
2.6457129e-10
2.64592486e-10
2.646125895e-10
2.64631689e-10
2.646498608e-10
2.646671706e-10
2.6468368e-10
2.646994386e-10
2.647145027e-10
2.647289219e-10
2.647427684e-10
2.647561759e-10
2.647694995e-10
2.647835014e-10
2.648001142e-10
2.64823198e-10
2.648593427e-10
2.649159667e-10
2.649966184e-10
2.650862202e-10
2.651252e-10
1.052019197e-05
1.085840224e-06
2.695672938e-07
1.944398749e-06
4.040513961e-06
4.469023527e-06
1.640953802e-06
2.449063509e-07
4.696723559e-08
1.310507752e-08
4.358345612e-09
1.606003707e-09
6.941159163e-10
3.956466789e-10
3.013585946e-10
2.728039928e-10
2.647655036e-10
2.630085069e-10
2.628502402e-10
2.630612157e-10
2.633093962e-10
2.635199552e-10
2.636870978e-10
2.63819762e-10
2.639271396e-10
2.640160185e-10
2.640911499e-10
2.641559197e-10
2.64212756e-10
2.642633815e-10
2.643090222e-10
2.643505551e-10
2.643886331e-10
2.644237518e-10
2.644563022e-10
2.644865987e-10
2.645149006e-10
2.645414223e-10
2.645663459e-10
2.645898268e-10
2.646119981e-10
2.646329743e-10
2.64652855e-10
2.646717283e-10
2.646896688e-10
2.647067472e-10
2.647230223e-10
2.647385571e-10
2.64753419e-10
2.647677061e-10
2.647815961e-10
2.647955346e-10
2.64810481e-10
2.64828632e-10
2.648540388e-10
2.648927588e-10
2.649507204e-10
2.650289416e-10
2.651108412e-10
2.651380435e-10
1.675091386e-05
1.673226013e-06
2.696322839e-07
1.618856498e-06
4.971143128e-06
6.600455578e-06
3.841815202e-06
6.883755223e-07
1.122026658e-07
2.510551391e-08
7.156021207e-09
2.3429111e-09
9.000149438e-10
4.557716076e-10
3.19517599e-10
2.782889069e-10
2.662914178e-10
2.633383725e-10
2.628273712e-10
2.629481128e-10
2.631845798e-10
2.634059712e-10
2.635897104e-10
2.637394064e-10
2.638622497e-10
2.639642406e-10
2.640499936e-10
2.641231545e-10
2.641865869e-10
2.642424581e-10
2.642923498e-10
2.643373986e-10
2.64378433e-10
2.64416069e-10
2.644507833e-10
2.644829535e-10
2.64512887e-10
2.645408388e-10
2.645670216e-10
2.645916169e-10
2.646147783e-10
2.646366373e-10
2.64657307e-10
2.646768871e-10
2.646954632e-10
2.647131179e-10
2.64729918e-10
2.647459365e-10
2.647612555e-10
2.647760042e-10
2.647904225e-10
2.648050725e-10
2.64821121e-10
2.648409992e-10
2.64868812e-10
2.649101158e-10
2.649696225e-10
2.650465159e-10
2.651232244e-10
2.651404815e-10
2.292734334e-05
2.689378232e-06
3.468216937e-07
1.048755626e-06
6.089890794e-06
9.242389831e-06
7.128504105e-06
1.812976354e-06
2.652268107e-07
4.872839953e-08
1.146185778e-08
3.273768261e-09
1.129767606e-09
5.202203857e-10
3.396042466e-10
2.848157632e-10
2.683077635e-10
2.638746821e-10
2.628843899e-10
2.628639921e-10
2.630685102e-10
2.632917629e-10
2.634875237e-10
2.6365193e-10
2.6378943e-10
2.639047348e-10
2.640018282e-10
2.640842152e-10
2.641549705e-10
2.642166325e-10
2.642711543e-10
2.64319975e-10
2.643641396e-10
2.644044159e-10
2.644413836e-10
2.644754956e-10
2.645071135e-10
2.645365359e-10
2.645640086e-10
2.645897409e-10
2.646139081e-10
2.646366597e-10
2.646581239e-10
2.64678414e-10
2.646976285e-10
2.647158605e-10
2.647331863e-10
2.647496911e-10
2.647654751e-10
2.647807088e-10
2.647957078e-10
2.648111571e-10
2.648284274e-10
2.648501397e-10
2.648803289e-10
2.64924015e-10
2.649848054e-10
2.650603933e-10
2.651325314e-10
2.6513965e-10
3.244593416e-05
4.253635138e-06
3.96338287e-07
8.3815268e-07
7.743693024e-06
1.265254291e-05
1.152951511e-05
4.233201296e-06
6.178095038e-07
9.830943934e-08
1.86998394e-08
4.529750535e-09
1.394985045e-09
5.899856688e-10
3.61651014e-10
2.923356423e-10
2.707952046e-10
2.64623977e-10
2.630374216e-10
2.628253699e-10
2.629754804e-10
2.631892749e-10
2.63390402e-10
2.635652509e-10
2.637148363e-10
2.638422456e-10
2.639504482e-10
2.640423757e-10
2.641209575e-10
2.6418889e-10
2.642484181e-10
2.643012767e-10
2.643487516e-10
2.64391788e-10
2.644310913e-10
2.644672029e-10
2.645005485e-10
2.645314732e-10
2.645602593e-10
2.645871442e-10
2.646123267e-10
2.646359764e-10
2.646582386e-10
2.646792413e-10
2.646990953e-10
2.647179029e-10
2.647357528e-10
2.64752745e-10
2.647690044e-10
2.647847535e-10
2.64800394e-10
2.648167351e-10
2.648353309e-10
2.648589298e-10
2.648914152e-10
2.649372285e-10
2.649989447e-10
2.65073027e-10
2.65140712e-10
2.651370143e-10
4.55454455e-05
6.689495246e-06
9.355940671e-07
1.103222202e-06
1.042137879e-05
1.723956072e-05
1.644299061e-05
8.243600138e-06
1.433955471e-06
2.100438539e-07
3.110236988e-08
6.101210747e-09
1.664318189e-09
6.578518175e-10
3.842094547e-10
3.004950985e-10
2.736653045e-10
2.65570489e-10
2.632940051e-10
2.628452285e-10
2.629182768e-10
2.631098982e-10
2.633080539e-10
2.634872774e-10
2.636445286e-10
2.63781094e-10
2.638987467e-10
2.639995265e-10
2.640858325e-10
2.641601981e-10
2.642249603e-10
2.642820588e-10
2.643329952e-10
2.64378896e-10
2.644206042e-10
2.644587607e-10
2.644938634e-10
2.645263086e-10
2.645564189e-10
2.645844618e-10
2.646106613e-10
2.64635209e-10
2.646582681e-10
2.646799806e-10
2.647004699e-10
2.647198484e-10
2.647382202e-10
2.647557051e-10
2.64772459e-10
2.64788765e-10
2.648051181e-10
2.648224508e-10
2.648424666e-10
2.648679667e-10
2.649026319e-10
2.649503072e-10
2.650126046e-10
2.650849916e-10
2.651483268e-10
2.651341659e-10
6.306717764e-05
9.33079018e-06
1.566402321e-06
1.758917668e-06
1.548549148e-05
2.381887726e-05
2.193007235e-05
1.279264049e-05
3.053507932e-06
4.686464857e-07
5.524886485e-08
8.336712243e-09
1.966622161e-09
7.305683627e-10
4.088597643e-10
3.095395109e-10
2.769376626e-10
2.667133453e-10
2.636587774e-10
2.629310758e-10
2.629053213e-10
2.630622173e-10
2.632486167e-10
2.634253078e-10
2.635846457e-10
2.63726059e-10
2.638501408e-10
2.63957924e-10
2.64051004e-10
2.641314217e-10
2.642013329e-10
2.642627058e-10
2.643171676e-10
2.643659901e-10
2.644101439e-10
2.644503702e-10
2.64487242e-10
2.645212113e-10
2.645526441e-10
2.645818404e-10
2.646090511e-10
2.646344902e-10
2.646583381e-10
2.646807518e-10
2.647018675e-10
2.647218103e-10