/*--------------------------------*- C++ -*----------------------------------*\
  =========                 |
  \\      /  F ield         | OpenFOAM: The Open Source CFD Toolbox
   \\    /   O peration     | Website:  https://openfoam.org
    \\  /    A nd           | Version:  10
     \\/     M anipulation  |
\*---------------------------------------------------------------------------*/
FoamFile
{
    format      ascii;
    class       volScalarField;
    location    "0.02498436188";
    object      C3H7;
}
// * * * * * * * * * * * * * * * * * * * * * * * * * * * * * * * * * * * * * //

dimensions      [0 0 0 0 0 0 0];

internalField   nonuniform List<scalar> 
5170
(
0
0
0
0
0
0
0
0
0
0
0
0
0
0
0
0
0
0
0
0
0
0
0
0
0
0
0
0
0
0
0
0
0
0
0
0
0
0
0
0
0
0
0
0
0
0
0
0
0
0
0
0
0
0
0
0
0
0
0
0
0
0
0
0
0
0
0
0
0
0
0
0
0
0
0
0
0
0
0
0
0
0
0
0
0
0
0
0
0
0
0
0
0
0
0
0
0
2.14343664e-14
1.025295607e-12
5.768516464e-12
2.812791891e-36
8.882333373e-35
0
3.113478263e-36
3.091872383e-36
0
3.417617541e-35
0
0
0
0
0
4.883461572e-36
6.570515356e-35
0
1.57269464e-33
0
0
3.608879085e-33
0
0
1.668714736e-31
1.195075259e-31
0
3.074455046e-28
0
4.454340399e-28
0
3.123048369e-27
0
3.149050793e-26
0
0
5.051324298e-25
2.89613709e-24
4.954925714e-24
1.111849802e-24
0
0
0
0
0
0
0
0
0
0
0
0
0
0
0
0
0
0
0
0
0
0
0
0
0
0
0
0
0
0
0
0
0
0
0
0
0
0
0
0
0
0
0
0
0
0
0
0
0
0
0
0
0
3.588338412e-14
0
0
0
0
1.167648953e-11
8.337596535e-13
1.414836754e-13
2.783796071e-15
4.050811366e-17
0
8.706989829e-13
1.567890744e-11
2.380742856e-10
3.554781375e-09
4.323765042e-13
4.316676765e-12
5.49556025e-11
5.651311781e-10
5.231911041e-09
1.686928311e-12
1.155811206e-11
1.111554207e-10
9.140335508e-10
6.03379163e-09
4.320020037e-12
2.433951587e-11
1.899562487e-10
1.260726532e-09
6.475827299e-09
9.258101361e-12
4.556862758e-11
3.044844218e-10
1.624127224e-09
6.94485706e-09
1.799060416e-11
7.907991126e-11
4.380856918e-10
2.073286727e-09
7.824593341e-09
3.324577904e-11
1.338029418e-10
6.35617279e-10
2.713989437e-09
9.348347614e-09
5.862764439e-11
2.171641903e-10
9.219931046e-10
3.579990687e-09
1.119626424e-08
1.013116062e-10
3.403535819e-10
1.326973515e-09
4.665640957e-09
1.3123453e-08
1.70326845e-10
5.109426178e-10
1.872888089e-09
5.934872774e-09
1.484545888e-08
2.905572726e-10
7.880258813e-10
2.604056112e-09
7.425658997e-09
1.651910665e-08
4.617213429e-10
1.197514425e-09
3.536057387e-09
9.085413609e-09
1.78023337e-08
7.769224504e-10
1.786608439e-09
4.672947451e-09
1.076901318e-08
1.822736205e-08
1.271901806e-09
2.567616406e-09
5.997403152e-09
1.239525929e-08
1.780104892e-08
2.068077085e-09
3.645626284e-09
7.567523978e-09
1.387479367e-08
1.643457051e-08
3.228206371e-09
5.086920181e-09
9.406847752e-09
1.504371202e-08
1.426246604e-08
5.066323479e-09
7.199050906e-09
1.165330612e-08
1.564763154e-08
1.20184904e-08
8.074623709e-09
1.020323743e-08
1.377074698e-08
1.464293035e-08
9.65376481e-09
1.223757211e-08
1.382606306e-08
1.499709431e-08
1.216944668e-08
7.662264219e-09
1.439082988e-08
1.424757443e-08
1.240788234e-08
8.818405024e-09
5.835274883e-09
1.077862998e-08
9.894652182e-09
8.059787603e-09
6.033037375e-09
4.510579416e-09
6.480363772e-09
6.111553539e-09
5.425761736e-09
4.691582474e-09
4.117598204e-09
4.948785407e-09
4.881220146e-09
4.758369138e-09
4.666961903e-09
4.66713683e-09
5.064174512e-09
5.10143402e-09
5.197266717e-09
5.371235827e-09
5.63022904e-09
4.599507223e-09
4.608619779e-09
4.616049303e-09
4.614732096e-09
4.587681102e-09
2.568566247e-09
2.546954297e-09
2.495772121e-09
2.409567287e-09
2.287341445e-09
1.120953672e-09
1.107228397e-09
1.074074885e-09
1.022600357e-09
9.549150628e-10
4.449045461e-10
4.389595228e-10
4.247287436e-10
4.032355258e-10
3.756605171e-10
1.719604288e-10
1.698189058e-10
1.648808362e-10
1.568223866e-10
1.464772383e-10
6.719552198e-11
6.662834484e-11
6.528664424e-11
6.24128682e-11
5.848885826e-11
2.511185264e-11
2.494173943e-11
2.456651535e-11
2.40720512e-11
2.302134311e-11
1.080463702e-11
1.071375903e-11
1.050074005e-11
1.018324803e-11
9.763063605e-12
4.743747895e-12
4.708336479e-12
4.622062535e-12
4.507256904e-12
4.3675834e-12
2.337878662e-12
2.327717945e-12
2.303434449e-12
2.268055212e-12
2.225619315e-12
1.355158002e-12
1.351362625e-12
1.342519541e-12
1.330130996e-12
1.315184715e-12
8.730539537e-13
8.740725672e-13
8.75947754e-13
8.788725554e-13
8.83401657e-13
5.97002747e-13
5.985469181e-13
6.016072005e-13
6.057698718e-13
6.11018113e-13
3.724491099e-13
3.739190117e-13
3.769294647e-13
3.813906318e-13
3.872229261e-13
2.124214393e-13
2.133841185e-13
2.15310059e-13
2.180744907e-13
2.217016706e-13
9.982613012e-14
1.002859459e-13
1.011293953e-13
1.02252783e-13
1.035918597e-13
3.027196021e-14
3.043710394e-14
3.073814363e-14
3.115503229e-14
3.170710494e-14
8.746477953e-16
9.256511416e-16
1.05149547e-15
1.318246349e-15
1.838760995e-15
0
0
0
4.516126032e-18
7.175391883e-18
0
0
0
0
0
0
0
0
0
0
0
0
0
0
0
0
0
0
0
0
0
0
0
0
0
0
0
0
0
0
0
0
0
0
0
0
0
0
0
0
0
0
0
0
0
0
0
0
0
0
0
0
0
0
0
1.730435433e-21
0
0
0
0
1.404185026e-18
1.397723495e-18
1.339903455e-18
8.547149127e-19
0
0
0
0
0
0
0
0
0
0
0
0
0
0
0
0
4.905385565e-18
5.496901178e-18
7.099164366e-18
9.991154002e-18
1.438521909e-17
5.678941703e-17
5.730879953e-17
5.843806046e-17
6.013161473e-17
6.232164115e-17
8.728756193e-17
8.732244155e-17
8.732697425e-17
8.717832668e-17
8.672343649e-17
1.036461242e-16
1.024510429e-16
9.984120927e-17
9.596106683e-17
9.097335831e-17
3.0565575e-17
3.017960479e-17
2.941798791e-17
2.8427282e-17
2.779300312e-17
1.798892306e-17
1.789637395e-17
1.780648615e-17
1.786385614e-17
1.867938998e-17
4.229760075e-17
4.425350572e-17
4.866053877e-17
5.558700379e-17
6.563665584e-17
3.593417623e-16
3.592670658e-16
3.592045418e-16
3.592364259e-16
3.593948785e-16
5.30481754e-16
5.294226712e-16
5.271618891e-16
5.237686961e-16
5.192168728e-16
5.162726367e-16
5.15564663e-16
5.139842826e-16
5.115178632e-16
5.080846556e-16
4.442795375e-16
4.439416968e-16
4.431405268e-16
4.418345637e-16
4.399483017e-16
1.301503402e-08
1.669788019e-08
1.594059896e-08
1.433669569e-08
1.342138478e-08
1.367151562e-08
1.48648193e-08
1.580635425e-08
1.629623658e-08
1.612614776e-08
1.600377904e-08
1.558047941e-08
1.462421907e-08
1.346960085e-08
1.20244489e-08
1.029360574e-08
8.653453401e-09
7.124416906e-09
5.872471178e-09
4.755345279e-09
3.938262302e-09
3.895171665e-09
4.749296289e-09
5.847192935e-09
4.552995042e-09
2.197772733e-09
9.079737794e-10
3.570146302e-10
1.393493639e-10
5.577087102e-11
2.229987168e-11
9.477459743e-12
4.283230045e-12
2.202742932e-12
1.306853085e-12
8.893609922e-13
6.160407783e-13
3.92763914e-13
2.248609095e-13
1.049848141e-13
3.235610479e-14
2.496321242e-15
1.844627378e-17
0
0
0
0
0
0
0
0
0
0
0
1.569150491e-20
0
0
0
0
1.828152194e-17
6.404104733e-17
8.615466973e-17
8.712487122e-17
2.84264221e-17
2.051833134e-17
7.515272157e-17
3.59381332e-16
5.15242437e-16
5.050753854e-16
4.383557373e-16
3.487807648e-09
3.054852827e-10
1.030918677e-11
2.894234893e-13
1.77519783e-14
6.066925586e-09
2.185883784e-08
1.255737574e-09
4.095985582e-11
1.346690132e-12
6.584268143e-09
1.063160899e-08
1.062007463e-09
5.675473774e-11
7.242805989e-12
6.902044948e-09
6.014917427e-09
9.238283036e-10
8.095068676e-11
6.338726118e-12
7.056168542e-09
5.580481745e-09
1.64589115e-08
1.569348904e-09
1.117573209e-10
7.605119978e-09
6.57242234e-09
2.618425457e-08
3.305218701e-09
3.023600381e-10
8.457923494e-09
6.316208546e-09
2.513609984e-08
3.803602643e-09
4.340894792e-10
8.791364827e-09
5.637052692e-09
1.691156422e-08
3.007810298e-09
4.078552362e-10
8.657273808e-09
5.160491516e-09
1.314460607e-08
7.581467779e-09
1.025277294e-09
8.270466393e-09
4.605462142e-09
9.878467055e-09
9.807829858e-09
1.682384708e-09
7.847137299e-09
4.504712427e-09
9.500436192e-09
1.694399594e-08
3.026950572e-09
7.563000574e-09
4.346428893e-09
8.259352974e-09
1.717934574e-08
3.47936576e-09
7.120077621e-09
4.166644641e-09
7.074654951e-09
1.715287524e-08
3.751143048e-09
6.536333117e-09
4.071232984e-09
6.378480808e-09
1.602486537e-08
7.796127893e-09
5.926889906e-09
3.749854582e-09
5.899744115e-09
1.470932734e-08
9.276445887e-09
5.284053499e-09
3.409061788e-09
5.598366702e-09
1.367139977e-08
1.156716578e-08
4.599719538e-09
3.076320681e-09
5.342070725e-09
1.274023965e-08
1.112549391e-08
4.14994254e-09
3.32715199e-09
5.746751834e-09
1.353085004e-08
1.056868604e-08
3.835079267e-09
3.787442024e-09
7.471519629e-09
1.742657239e-08
9.911404194e-09
3.603739588e-09
4.426663505e-09
9.434649094e-09
2.127523152e-08
9.047303274e-09
3.290738478e-09
3.716043698e-09
6.07630636e-09
1.191023723e-08
2.248027077e-08
3.599301467e-09
3.925533541e-09
5.314591261e-09
8.537848185e-09
1.50784126e-08
4.836551096e-09
5.592475399e-09
7.202402826e-09
9.706899685e-09
1.179397027e-08
6.145493556e-09
6.717385619e-09
7.022488584e-09
6.545414689e-09
5.275055933e-09
4.558471881e-09
4.300866685e-09
3.738481348e-09
2.955969099e-09
2.127106482e-09
2.116816988e-09
1.863557361e-09
1.520898668e-09
1.154064099e-09
8.201706254e-10
8.631126089e-10
7.471454035e-10
6.032063184e-10
4.612188417e-10
3.35512807e-10
3.392965064e-10
2.945270229e-10
2.433504545e-10
1.88000196e-10
1.415306626e-10
1.317456857e-10
1.181254894e-10
9.967900422e-11
7.870238304e-11
5.862885586e-11
5.304724688e-11
4.632509422e-11
3.97020095e-11
3.325085698e-11
2.604633708e-11
2.155498166e-11
1.932015598e-11
1.64950396e-11
1.42506584e-11
1.176718157e-11
9.231660523e-12
8.522466776e-12
7.410983323e-12
6.404225716e-12
5.460102742e-12
4.223049592e-12
3.974115442e-12
3.672251793e-12
3.269579935e-12
2.856888934e-12
2.199189118e-12
2.094459726e-12
1.94522213e-12
1.818249851e-12
1.73916874e-12
1.304863639e-12
1.284457237e-12
1.25531058e-12
1.251143387e-12
1.219588331e-12
9.024450818e-13
9.209102601e-13
9.241526803e-13
9.249060589e-13
9.252457753e-13
6.278474898e-13
6.411664556e-13
6.514545045e-13
6.639401669e-13
6.682766738e-13
4.044838573e-13
4.189120531e-13
4.277474246e-13
4.33028042e-13
4.357855371e-13
2.321984943e-13
2.401873017e-13
2.449507201e-13
2.477234083e-13
2.496420506e-13
1.088286495e-13
1.130029527e-13
1.156644972e-13
1.178739584e-13
1.194667013e-13
3.421705913e-14
3.669872701e-14
3.89809691e-14
4.167819613e-14
4.165027318e-14
3.829786227e-15
6.900617186e-15
7.927091499e-15
7.633641623e-15
6.502646135e-15
1.651589862e-17
7.746315971e-17
4.569582415e-17
0
0
0
0
0
0
0
0
0
0
0
0
0
0
0
0
0
0
0
0
0
0
0
0
0
0
0
0
0
0
0
0
0
0
0
0
0
0
0
0
0
0
0
0
0
0
0
0
0
0
0
0
0
0
0
0
0
0
4.384473735e-19
0
0
0
0
0
0
0
0
0
0
0
0
0
0
0
0
0
0
0
0
0
6.277664481e-18
2.153345901e-17
2.417717968e-17
3.359896543e-17
4.21276491e-17
4.944100461e-17
5.441573974e-17
6.678511072e-17
7.039250347e-17
7.266022249e-17
7.274813316e-17
7.048151134e-17
8.533825233e-17
8.208966151e-17
7.662251361e-17
6.955803059e-17
6.201425239e-17
8.135362063e-17
6.957444926e-17
4.758186178e-17
3.739046157e-17
3.099636739e-17
2.648256179e-17
2.543087065e-17
2.407247047e-17
2.338947362e-17
2.43730316e-17
2.032397863e-17
2.338285102e-17
2.792358678e-17
3.547518157e-17
4.770233974e-17
8.696192204e-17
1.105897705e-16
1.348284012e-16
1.66365533e-16
1.839118301e-16
3.58389528e-16
3.577069325e-16
3.558782778e-16
3.542111087e-16
3.51247752e-16
5.081768478e-16
4.962578769e-16
4.826083386e-16
4.677059124e-16
4.505722909e-16
5.004174918e-16
4.90382128e-16
4.773324773e-16
4.614655195e-16
4.430513017e-16
4.365051462e-16
4.307389748e-16
4.225887975e-16
4.127594851e-16
4.007565725e-16
3.446653041e-14
4.941113996e-13
1.160557583e-13
5.883857893e-14
4.967989976e-14
4.763290351e-14
4.714314461e-14
4.706413982e-14
4.707883071e-14
4.710092333e-14
4.711388548e-14
4.711557277e-14
4.710983098e-14
4.709900418e-14
4.70880974e-14
4.71006515e-14
4.709647331e-14
4.70786285e-14
4.708453368e-14
4.708890515e-14
4.708890305e-14
4.708703427e-14
4.708466712e-14
4.708224676e-14
4.707991858e-14
4.707777971e-14
4.707580708e-14
4.707394581e-14
4.707222813e-14
4.707069969e-14
4.706930159e-14
4.706796632e-14
4.706667972e-14
4.706546233e-14
4.70643919e-14
4.70634419e-14
4.706258868e-14
4.706181953e-14
4.706114435e-14
4.70605375e-14
4.70599882e-14
4.705950719e-14
4.705905918e-14
4.705861491e-14
4.705822996e-14
4.705801217e-14
4.705790041e-14
4.705786276e-14
4.705785809e-14
4.70578965e-14
4.705796239e-14
4.705807408e-14
4.705819847e-14
4.705835415e-14
4.70579353e-14
4.705150508e-14
4.700194886e-14
4.674437175e-14
4.576619572e-14
4.452654306e-14
1.343263458e-12
3.598885572e-12
3.573743859e-13
1.199929316e-13
9.774295052e-14
9.36281728e-14
9.249198572e-14
9.21126231e-14
9.198411575e-14
9.193883894e-14
9.192268345e-14
9.191290975e-14
9.189929956e-14
9.187216879e-14
9.182957744e-14
9.179724361e-14
9.178828853e-14
9.180915993e-14
9.184682574e-14
9.186727228e-14
9.187356048e-14
9.187397534e-14
9.187266211e-14
9.187092317e-14
9.186953741e-14
9.186845273e-14
9.186719367e-14
9.186602542e-14
9.186566135e-14
9.186576771e-14
9.186584315e-14
9.186566193e-14
9.186550401e-14
9.186597912e-14
9.186713037e-14
9.186828513e-14
9.186940227e-14
9.187033079e-14
9.187178451e-14
9.187285139e-14
9.187452488e-14
9.187665189e-14
9.187822341e-14
9.187993696e-14
9.188116375e-14
9.188288388e-14
9.188446194e-14
9.188661308e-14
9.188875929e-14
9.189072111e-14
9.189252473e-14
9.189456019e-14
9.189622306e-14
9.189843158e-14
9.189954033e-14
9.189836468e-14
9.188958594e-14
9.188501342e-14
9.209027797e-14
9.252862501e-14
1.179778246e-11
0
3.87752122e-13
1.70908947e-13
1.313734993e-13
1.221840722e-13
1.191475727e-13
1.178737344e-13
1.172883784e-13
1.170202056e-13
1.169049423e-13
1.168575088e-13
1.168309422e-13
1.16793386e-13
1.16725209e-13
1.16638737e-13
1.166268993e-13
1.16709188e-13
1.167848007e-13
1.168244935e-13
1.168390142e-13
1.168427424e-13
1.168430639e-13
1.168426784e-13
1.168424894e-13
1.168425895e-13
1.168430319e-13
1.168437907e-13
1.168449141e-13
1.168464718e-13
1.168483246e-13
1.168503728e-13
1.168528663e-13
1.168558076e-13
1.168589571e-13
1.168622828e-13
1.168658877e-13
1.168694216e-13
1.168730708e-13
1.168764414e-13
1.168803125e-13
1.168843357e-13
1.168882603e-13
1.168924837e-13
1.168964746e-13
1.169007988e-13
1.169047846e-13
1.169092477e-13
1.169134416e-13
1.16917754e-13
1.169217794e-13
1.169262448e-13
1.169300864e-13
1.169347422e-13
1.169389235e-13
1.169475422e-13
1.169774942e-13
1.17114607e-13
1.176096039e-13
1.181960389e-13
3.973733081e-11
1.329672888e-11
3.927054851e-12
6.213552322e-13
2.236936035e-13
1.569782699e-13
1.39033578e-13
1.323173441e-13
1.294150929e-13
1.281349302e-13
1.275943359e-13
1.273853516e-13
1.273085258e-13
1.272608116e-13
1.271886432e-13
1.270857571e-13
1.270916503e-13
1.272325055e-13
1.273473234e-13
1.274114179e-13
1.274412157e-13
1.274556951e-13
1.274647202e-13
1.274720517e-13
1.274789446e-13
1.274856219e-13
1.274922052e-13
1.274987626e-13
1.27505282e-13
1.275118255e-13
1.275183777e-13
1.275249066e-13
1.275315341e-13
1.275382237e-13
1.275448917e-13
1.275516156e-13
1.275583776e-13
1.275649657e-13
1.275714259e-13
1.275776827e-13
1.27583997e-13
1.275902188e-13
1.275963533e-13
1.276025228e-13
1.276085469e-13
1.276146409e-13
1.276204753e-13
1.276263812e-13
1.276319889e-13
1.276376834e-13
1.27643127e-13
1.276487493e-13
1.276539113e-13
1.276597131e-13
1.276660323e-13
1.276791337e-13
1.277173326e-13
1.278478596e-13
1.281919726e-13
1.285348105e-13
1.934610714e-11
5.952365918e-11
1.056766387e-11
3.96472251e-12
7.544688823e-13
2.787680175e-13
1.803701582e-13
1.501787608e-13
1.386169767e-13
1.338594845e-13
1.31918802e-13
1.311736428e-13
1.309116043e-13
1.308124927e-13
1.307372044e-13
1.306449754e-13
1.306838013e-13
1.308723643e-13
1.310225176e-13
1.311111713e-13
1.311579446e-13
1.311850455e-13
1.312043267e-13
1.312204947e-13
1.312351571e-13
1.312488237e-13
1.312617225e-13
1.312739851e-13
1.31285695e-13
1.312969371e-13
1.313077494e-13
1.313181692e-13
1.31328272e-13
1.313380742e-13
1.313475704e-13
1.313568211e-13
1.313658201e-13
1.313744982e-13
1.313828718e-13
1.313909639e-13
1.313988497e-13
1.314064761e-13
1.314138819e-13
1.314211088e-13
1.314281132e-13
1.314349803e-13
1.314416109e-13
1.314480903e-13
1.314543018e-13
1.314604342e-13
1.314663421e-13
1.314722214e-13
1.314778397e-13
1.314838843e-13
1.314910593e-13
1.315044607e-13
1.315372645e-13
1.316247584e-13
1.31805828e-13
1.319640241e-13
2.501623988e-11
1.289881307e-10
5.799117794e-11
2.101337297e-11
3.055300413e-12
6.30992572e-13
2.690826575e-13
1.807251351e-13
1.507171592e-13
1.390457411e-13
1.344150246e-13
1.326519265e-13
1.320266219e-13
1.318093439e-13
1.317049012e-13
1.316187878e-13
1.31686239e-13
1.319089271e-13
1.320895954e-13
1.322023249e-13
1.322660744e-13
1.323051468e-13
1.323333979e-13
1.323567113e-13
1.323772903e-13
1.323960124e-13
1.324133036e-13
1.324294116e-13
1.32444509e-13
1.324587398e-13
1.324721959e-13
1.324849612e-13
1.324971169e-13
1.325087187e-13
1.325198009e-13
1.325304182e-13
1.325405935e-13
1.325503335e-13
1.325596664e-13
1.325686301e-13
1.325772615e-13
1.325855538e-13
1.325935379e-13
1.32601227e-13
1.326086157e-13
1.326157534e-13
1.326226432e-13
1.326293155e-13
1.326357328e-13
1.326419531e-13
1.326479393e-13
1.326537978e-13
1.3265952e-13
1.326656309e-13
1.326732292e-13
1.32686354e-13
1.327139626e-13
1.327725233e-13
1.328686435e-13
1.329406676e-13
2.94015866e-11
4.158713309e-11
1.841609017e-10
3.785276229e-11
1.095555906e-11
1.799302818e-12
4.959194589e-13
2.458085682e-13
1.733853699e-13
1.473259884e-13
1.374280927e-13
1.337535706e-13
1.324664651e-13
1.320336402e-13
1.318671646e-13
1.317742651e-13
1.318581923e-13
1.321026989e-13
1.32308785e-13
1.324457352e-13
1.325280769e-13
1.325802227e-13
1.326177219e-13
1.326478404e-13
1.326736584e-13
1.326965691e-13
1.327172992e-13
1.327362864e-13
1.327538297e-13
1.327701468e-13
1.327853991e-13
1.327997187e-13
1.328132125e-13
1.328259681e-13
1.328380526e-13
1.328495283e-13
1.328604426e-13
1.328708342e-13
1.32880743e-13
1.328902089e-13
1.328992669e-13
1.329079355e-13
1.32916245e-13
1.329242143e-13
1.329318521e-13
1.329391801e-13
1.329462145e-13
1.329529899e-13
1.329595145e-13
1.329658063e-13
1.329718634e-13
1.329777623e-13
1.329836113e-13
1.329899643e-13
1.329981704e-13
1.330119e-13
1.330378363e-13
1.330840213e-13
1.331466793e-13
1.331850228e-13
3.717990111e-11
2.398450323e-11
2.620771654e-10
1.274171162e-10
4.482081271e-11
8.288592094e-12
1.324400753e-12
4.11363816e-13
2.194514053e-13
1.621134831e-13
1.422509724e-13
1.352390612e-13
1.328588428e-13
1.320862482e-13
1.318228098e-13
1.31710543e-13
1.318010746e-13
1.320576249e-13
1.322824691e-13
1.324414325e-13
1.325428995e-13
1.326095083e-13
1.326575541e-13
1.326954078e-13
1.327270091e-13
1.327543537e-13
1.327785806e-13
1.328003984e-13
1.328202796e-13
1.328385551e-13
1.328554687e-13
1.328712082e-13
1.328859216e-13
1.328997299e-13
1.329127287e-13
1.329249998e-13
1.329366105e-13
1.329476184e-13
1.329580747e-13
1.329680243e-13
1.329775062e-13
1.329865498e-13
1.329951883e-13
1.330034519e-13
1.33011363e-13
1.330189374e-13
1.330261832e-13
1.330331261e-13
1.330397902e-13
1.330462006e-13
1.330523866e-13
1.330584378e-13
1.330645435e-13
1.330713667e-13
1.330805034e-13
1.330956174e-13
1.331221491e-13
1.331643832e-13
1.332149371e-13
1.332394604e-13
8.154445276e-11
1.277223231e-11
9.291776066e-11
3.425734784e-10
7.499294958e-11
2.681543711e-11
3.697436777e-12
7.694515728e-13
3.039888491e-13
1.86796843e-13
1.497825421e-13
1.374145675e-13
1.333856932e-13
1.321328448e-13
1.317404889e-13
1.316005121e-13
1.316918073e-13
1.319558581e-13
1.321941671e-13
1.323708581e-13
1.324896513e-13
1.325707758e-13
1.326302971e-13
1.32677026e-13
1.327154185e-13
1.327479617e-13
1.327762223e-13
1.328012422e-13
1.328237246e-13
1.328441539e-13
1.328628795e-13
1.328801603e-13
1.328961954e-13
1.329111448e-13
1.329251351e-13
1.329382721e-13
1.329506436e-13
1.329623236e-13
1.32973375e-13
1.329838525e-13
1.329938034e-13
1.330032668e-13
1.330122798e-13
1.33020877e-13
1.330290893e-13
1.330369427e-13
1.33044453e-13
1.330516399e-13
1.330585215e-13
1.330651269e-13
1.330715087e-13
1.330777991e-13
1.330842734e-13
1.330917403e-13
1.331020384e-13
1.331188372e-13
1.331466896e-13
1.331878456e-13
1.332333005e-13
1.332503588e-13
1.953101684e-10
1.894294678e-11
4.977477198e-11
4.384774059e-10
2.083877037e-10
3.352710792e-11
1.000443471e-11
1.652995504e-12
4.656359533e-13
2.255957813e-13
1.601082665e-13
1.401047254e-13
1.339848078e-13
1.321799211e-13
1.316513753e-13
1.314833673e-13
1.315735304e-13
1.318434395e-13
1.320925047e-13
1.322837784e-13
1.324175821e-13
1.325122102e-13
1.325832946e-13
1.326396321e-13
1.326857531e-13
1.327243531e-13
1.327573202e-13
1.327860329e-13
1.32811472e-13
1.328343206e-13
1.328550627e-13
1.328740477e-13
1.3289154e-13
1.329077459e-13
1.329228284e-13
1.329369206e-13
1.329501318e-13
1.329625532e-13
1.329742622e-13
1.329853252e-13
1.329957995e-13
1.330057341e-13
1.330151728e-13
1.330241542e-13
1.33032712e-13
1.330408772e-13
1.330486744e-13
1.330561303e-13
1.330632678e-13
1.330701201e-13
1.3307675e-13
1.330833329e-13
1.330902398e-13
1.330984542e-13
1.331100229e-13
1.331284965e-13
1.331576517e-13
1.331983445e-13
1.332407334e-13
1.332521723e-13
3.688100282e-10
3.881401661e-11
2.371322358e-11
2.00274564e-10
4.811688518e-10
9.636481723e-11
2.925955125e-11
3.895560755e-12
7.528634915e-13
2.788120734e-13
1.717303987e-13
1.426368975e-13
1.344377572e-13
1.32172357e-13
1.315475715e-13
1.313630412e-13
1.314538216e-13
1.317294898e-13
1.3198798e-13
1.321918981e-13
1.323389621e-13
1.324459786e-13
1.325282794e-13
1.325945542e-13
1.326491388e-13
1.326946328e-13
1.327330448e-13
1.327660216e-13
1.327948354e-13
1.328204088e-13
1.328433975e-13
1.328642671e-13
1.328833618e-13
1.329009422e-13
1.329172135e-13
1.329323398e-13
1.329464556e-13
1.329596725e-13
1.329720845e-13
1.329837715e-13
1.32994802e-13
1.330052348e-13
1.330151203e-13
1.330245037e-13
1.330334225e-13
1.330419133e-13
1.330500055e-13
1.33057731e-13
1.330651224e-13
1.330722278e-13
1.330791299e-13
1.330860518e-13
1.330934637e-13
1.331025158e-13
1.331153934e-13
1.331354209e-13
1.331656491e-13
1.332058419e-13
1.332457532e-13
1.332520834e-13
5.203316731e-10
5.24568923e-11
1.516517483e-11
1.263034499e-10
7.683530452e-10
2.263825066e-10
3.692246583e-11
9.108915636e-12
1.418059388e-12
3.655900612e-13
1.846314732e-13
1.444927098e-13
1.345977498e-13
1.320938556e-13
1.314362411e-13
1.312468176e-13
1.313385238e-13
1.316185775e-13
1.318844815e-13
1.320989055e-13
1.322574635e-13
1.323756117e-13
1.32468422e-13
1.325445403e-13
1.326080168e-13
1.326611171e-13
1.327057228e-13
1.327435984e-13
1.327762645e-13
1.328049053e-13
1.328303848e-13
1.328533182e-13
1.328741505e-13
1.32893211e-13
1.329107537e-13
1.329269795e-13
1.329420517e-13
1.329561054e-13
1.329692533e-13
1.329815908e-13
1.329931987e-13
1.330041455e-13
1.330144896e-13
1.33024283e-13
1.330335692e-13
1.330423921e-13
1.330507851e-13
1.33058786e-13
1.330664348e-13
1.33073796e-13
1.330809842e-13
1.330882833e-13
1.330962763e-13
1.331062508e-13
1.331204273e-13
1.331418538e-13
1.331729063e-13
1.332124515e-13
1.332500965e-13
1.33251383e-13
5.676657843e-10
6.705015341e-11
1.481000307e-11
8.787895604e-11
6.283812021e-10
4.516234948e-10
7.07021005e-11
1.940520147e-11
2.568774161e-12
4.905492024e-13
1.966183499e-13
1.450973492e-13
1.344135395e-13
1.319669146e-13
1.313361794e-13
1.31147404e-13
1.312381631e-13
1.315194434e-13
1.317888683e-13
1.320101598e-13
1.32177286e-13
1.32304436e-13
1.324062907e-13
1.324914159e-13
1.325635695e-13
1.326245564e-13
1.326758947e-13
1.327192447e-13
1.327562508e-13
1.327883236e-13
1.328165513e-13
1.328417286e-13
1.328644269e-13
1.328850631e-13
1.329039509e-13
1.329213349e-13
1.329374103e-13
1.329523384e-13
1.329662516e-13
1.329792625e-13
1.329914646e-13
1.330029373e-13
1.33013748e-13
1.330239569e-13
1.330336157e-13
1.330427741e-13
1.330514708e-13
1.330597501e-13
1.330676606e-13
1.330752887e-13
1.330827881e-13
1.330905059e-13
1.330991403e-13
1.331100902e-13
1.33125528e-13
1.331481918e-13
1.33179832e-13
1.332185831e-13
1.332540429e-13
1.332498137e-13
1.229037185e-09
1.563933746e-10
1.920301693e-11
5.931412998e-11
4.871355909e-10
9.190618973e-10
1.590549146e-10
4.276009372e-11
4.655715487e-12
6.628453678e-13
2.066510398e-13
1.446051258e-13
1.340051683e-13
1.318169155e-13
1.312508238e-13
1.310700515e-13
1.311613319e-13
1.314419133e-13
1.317106701e-13
1.319338211e-13
1.321051511e-13
1.32237868e-13
1.32346163e-13
1.324383758e-13
1.325179814e-13
1.325863036e-13
1.32644343e-13
1.326934234e-13
1.327351107e-13
1.32770924e-13
1.328021366e-13
1.32829724e-13
1.328544015e-13
1.328766903e-13
1.328969776e-13
1.3291556e-13
1.329326706e-13
1.329484977e-13
1.329631956e-13
1.329768936e-13
1.329896993e-13
1.330017043e-13
1.330129866e-13
1.330236154e-13
1.330336498e-13
1.330431449e-13
1.330521459e-13
1.33060705e-13
1.330688832e-13
1.330767947e-13
1.330846379e-13
1.330928226e-13
1.331021521e-13
1.331141018e-13
1.331307502e-13
1.331544997e-13
1.331865192e-13
1.332243633e-13
1.332576448e-13
1.332472414e-13
1.632477942e-09
2.358685277e-10
3.543096549e-11
5.978539638e-11
5.597467206e-10
1.591208707e-09
2.988981577e-10
6.793792959e-11
9.120909213e-12
1.028584117e-12
2.232023817e-13
1.4421403e-13
1.337861819e-13
1.317995918e-13
1.312421828e-13
1.310442106e-13
1.311261848e-13
1.313992847e-13
1.316607215e-13
1.318791058e-13
1.320488556e-13
1.321825627e-13
1.322936147e-13
1.323899198e-13
1.324746589e-13
1.32548728e-13
1.3261258e-13
1.326670427e-13
1.327133851e-13
1.327530508e-13
1.327873865e-13
1.328175008e-13
1.328442421e-13
1.328682407e-13
1.328899652e-13
1.329097707e-13
1.329279322e-13
1.329446685e-13
1.329601571e-13
1.329745454e-13
1.329879559e-13
1.330004936e-13
1.330122476e-13
1.330232954e-13
1.330337035e-13
1.330435326e-13
1.330528366e-13
1.330616782e-13
1.330701344e-13
1.330783518e-13
1.33086578e-13
1.330952859e-13
1.331053631e-13
1.331183155e-13
1.331361073e-13
1.331607974e-13
1.331930181e-13
1.332298814e-13
1.332610333e-13
1.33244629e-13
2.208186884e-09
3.129224752e-10
5.72626283e-11
1.001356898e-10
8.927509314e-10
2.216354632e-09
4.29849279e-10
8.625263695e-11
1.390537478e-11
1.517442648e-12
2.455485762e-13
1.447674077e-13
1.340055801e-13
1.319645105e-13
1.313230954e-13
1.310785317e-13
1.311414784e-13
1.313992336e-13
1.316459021e-13
1.318523269e-13
1.32014575e-13
1.321443072e-13
1.322538954e-13
1.323506607e-13
1.324374514e-13
1.325148206e-13
1.325827489e-13
1.326415294e-13
1.326919791e-13
1.327352729e-13
1.327726721e-13
1.328053192e-13
1.328341464e-13
1.328598742e-13
1.328830474e-13
1.329040801e-13
1.329232909e-13
1.329409311e-13
1.329572035e-13
1.329722745e-13
1.329862826e-13
1.329993463e-13
1.330115647e-13
1.330230242e-13
1.330337988e-13
1.330439562e-13
1.330535607e-13
1.330626872e-13
1.330714327e-13
1.330799791e-13
1.330886242e-13
1.330979027e-13
1.331087646e-13
1.3312271e-13
1.331415654e-13
1.331670476e-13
1.331993049e-13
1.332351295e-13
1.332642379e-13
1.332422851e-13
2.519069274e-09
4.543563512e-10
1.047611745e-10
2.717137786e-10
2.279935056e-09
2.291382067e-09
4.410994801e-10
8.809518082e-11
1.850055928e-11
2.049438638e-12
2.722413251e-13
1.46113588e-13
1.343056405e-13
1.320935807e-13
1.313937464e-13
1.31132228e-13
1.311923383e-13
1.314359056e-13
1.316642634e-13
1.318542051e-13
1.320041057e-13
1.32125477e-13
1.322297157e-13
1.323234054e-13
1.324090202e-13
1.324868738e-13
1.325566346e-13
1.326181475e-13
1.326717109e-13
1.327180785e-13
1.327582648e-13
1.327933187e-13
1.328241772e-13
1.328516078e-13
1.328762126e-13
1.328984572e-13
1.329187021e-13
1.329372316e-13
1.329542737e-13
1.329700148e-13
1.329846096e-13
1.329981886e-13
1.330108614e-13
1.330227232e-13
1.330338564e-13
1.330443371e-13
1.330542405e-13
1.330636558e-13
1.330727047e-13
1.330816073e-13
1.330907101e-13
1.331006064e-13
1.331122903e-13
1.331272308e-13
1.331470903e-13
1.331732493e-13
1.332054263e-13
1.332401899e-13
1.332673761e-13
1.332404818e-13
2.308048185e-09
4.586077457e-10
3.191146058e-10
1.751464325e-09
7.466801065e-09
1.798902073e-09
3.338936005e-10
6.538859122e-11
1.636513006e-11
2.657045567e-12
3.859591001e-13
1.62297061e-13
1.374614101e-13
1.329835462e-13
1.317408811e-13
1.313124657e-13
1.31314618e-13
1.315185378e-13
1.317155588e-13
1.318813914e-13
1.320140449e-13
1.321233786e-13
1.322189698e-13
1.323062335e-13
1.323871701e-13
1.324620923e-13
1.325309184e-13
1.32593529e-13
1.32649326e-13
1.326983116e-13
1.327410835e-13
1.327784945e-13
1.328114122e-13
1.328406048e-13
1.328667073e-13
1.328902262e-13
1.329115611e-13
1.32931029e-13
1.329488837e-13
1.329653324e-13
1.32980546e-13
1.329946678e-13
1.330078189e-13
1.330201043e-13
1.33031616e-13
1.330424407e-13
1.330526654e-13
1.330623986e-13
1.330717942e-13
1.330811185e-13
1.330907705e-13
1.331014094e-13
1.331140793e-13
1.331302213e-13
1.331513323e-13
1.331784591e-13
1.332108844e-13
1.332449154e-13
1.332704508e-13
1.332390586e-13
2.097827977e-09
6.210084718e-10
1.536133981e-09
8.660566936e-09
4.813582726e-09
9.329432971e-10
1.856520703e-10
5.079595098e-11
1.332221506e-11
4.341461616e-12
9.287876513e-13
2.571392112e-13
1.53469072e-13
1.365064687e-13
1.328418747e-13
1.317788937e-13
1.315667211e-13
1.316633272e-13
1.317981385e-13
1.31925334e-13
1.320329531e-13
1.321242688e-13
1.322044377e-13
1.322762984e-13
1.32340962e-13
1.324000098e-13
1.324575077e-13
1.325216862e-13
1.32582088e-13
1.326354416e-13
1.326819636e-13
1.327226585e-13
1.327584676e-13
1.327901837e-13
1.32818471e-13
1.328438769e-13
1.328668443e-13
1.328877293e-13
1.329068193e-13
1.329243483e-13
1.329405093e-13
1.329554647e-13
1.329693515e-13
1.329822899e-13
1.329943862e-13
1.330057438e-13
1.330164716e-13
1.330267132e-13
1.330366824e-13
1.330467434e-13
1.330574021e-13
1.330694924e-13
1.330842872e-13
1.331034401e-13
1.331285892e-13
1.331607548e-13
1.331989066e-13
1.332386246e-13
1.332684139e-13
1.332355091e-13
4.493547086e-09
4.723783714e-09
1.623012975e-08
1.182231333e-08
2.321131192e-09
4.575934087e-10
1.081169432e-10
3.523003748e-11
1.149213988e-11
4.844057818e-12
2.148906814e-12
6.921062276e-13
2.421305851e-13
1.530813311e-13
1.366721907e-13
1.330078976e-13
1.320959628e-13
1.319138021e-13
1.319137821e-13
1.319662561e-13
1.320243684e-13
1.32072806e-13
1.321061842e-13
1.321209678e-13
1.321189922e-13
1.32087579e-13
1.321402235e-13
1.322715438e-13
1.323646642e-13
1.324308228e-13
1.324813037e-13
1.325231821e-13
1.325595063e-13
1.325915843e-13
1.326201672e-13
1.32645812e-13