/*--------------------------------*- C++ -*----------------------------------*\
  =========                 |
  \\      /  F ield         | OpenFOAM: The Open Source CFD Toolbox
   \\    /   O peration     | Website:  https://openfoam.org
    \\  /    A nd           | Version:  10
     \\/     M anipulation  |
\*---------------------------------------------------------------------------*/
FoamFile
{
    format      ascii;
    class       volScalarField;
    location    "0.02498436188";
    object      C3H8;
}
// * * * * * * * * * * * * * * * * * * * * * * * * * * * * * * * * * * * * * //

dimensions      [0 0 0 0 0 0 0];

internalField   nonuniform List<scalar> 
5170
(
1.060974192e-13
1.05919391e-13
1.047273583e-13
9.62641758e-14
7.262864549e-15
2.101891174e-13
2.096348677e-13
2.071058864e-13
1.941656702e-13
1.206311413e-13
3.133680951e-13
3.124489339e-13
3.087676115e-13
2.933418688e-13
2.32524695e-13
4.151842912e-13
4.139463432e-13
4.094185515e-13
3.930514662e-13
3.447263164e-13
5.155254328e-13
5.140271555e-13
5.089828996e-13
4.928978234e-13
4.569035708e-13
6.144280642e-13
6.12770693e-13
6.075478919e-13
5.928278669e-13
5.689932278e-13
7.120642123e-13
7.103301836e-13
7.052514667e-13
6.929583529e-13
6.810959587e-13
8.086927631e-13
8.069977599e-13
8.023607616e-13
7.933754898e-13
7.933731584e-13
9.04516294e-13
9.029604791e-13
8.990971428e-13
8.942471119e-13
9.059822085e-13
9.997306167e-13
9.983830068e-13
9.955222379e-13
9.95736314e-13
1.019069294e-12
1.094445188e-12
1.093375975e-12
1.09170404e-12
1.097921174e-12
1.132667879e-12
1.188675096e-12
1.187977991e-12
1.187893642e-12
1.2007789e-12
1.246670348e-12
1.28244134e-12
1.282215055e-12
1.284198111e-12
1.304306201e-12
1.360954524e-12
1.375768632e-12
1.376113892e-12
1.380592269e-12
1.40848589e-12
1.475397128e-12
1.468664185e-12
1.469700081e-12
1.477069718e-12
1.5132474e-12
1.589848357e-12
1.56111054e-12
1.562971699e-12
1.573768411e-12
1.618593889e-12
1.704022077e-12
1.653114989e-12
1.655953843e-12
1.670589154e-12
1.72431905e-12
1.818029257e-12
1.744720558e-12
1.74876292e-12
1.768216292e-12
1.833374359e-12
1.942289013e-12
1.843542928e-12
1.871948448e-12
2.072889439e-12
3.444904444e-12
8.159540872e-12
4.199923233e-12
1.461662005e-11
1.035490999e-10
7.214484552e-10
3.494217185e-09
0
5.230097977e-39
7.846413078e-39
2.658794004e-37
1.796225891e-38
0
0
4.618874555e-35
5.454614963e-36
0
0
0
8.637666168e-33
0
1.666632223e-31
3.501615984e-30
0
0
0
0
0
0
0
1.0145522e-26
0
4.620152567e-24
9.166539543e-26
0
2.440577696e-25
1.478694089e-23
1.392875887e-23
4.122920888e-24
0
2.341268712e-24
0
0
1.464148693e-23
0
0
0
0
0
0
0
0
0
0
0
0
0
0
0
0
0
0
0
0
0
0
0
0
0
0
0
0
0
0
0
0
0
0
0
0
0
0
0
0
0
0
0
0
0
0
0
0
0
0
0
0
0
2.271852581e-10
0
0
0
0
5.909174979e-08
2.559620424e-09
4.703609741e-10
6.058864883e-12
6.972171487e-14
8.798740397e-11
6.719280387e-10
1.033723678e-08
1.54132303e-07
2.065804605e-06
4.821432542e-10
3.255072336e-09
3.993949865e-08
4.221519644e-07
3.260725486e-06
1.63665352e-09
9.978205788e-09
1.007957232e-07
8.110069506e-07
4.265186199e-06
4.352164362e-09
2.413294294e-08
2.056459324e-07
1.30857423e-06
5.082768262e-06
1.000188926e-08
5.053057494e-08
3.680301419e-07
1.875337412e-06
5.690583115e-06
2.12057543e-08
9.846857249e-08
6.054569781e-07
2.46374374e-06
6.17367173e-06
4.229815511e-08
1.802362623e-07
9.239974e-07
3.058096393e-06
6.668497856e-06
7.973849172e-08
3.089166251e-07
1.317501414e-06
3.644746758e-06
7.138311529e-06
1.438003828e-07
5.002507471e-07
1.772274598e-06
4.19725231e-06
7.511011814e-06
2.497975189e-07
7.673946225e-07
2.268220103e-06
4.707102782e-06
7.804328179e-06
4.210628339e-07
1.124121581e-06
2.789313081e-06
5.175178614e-06
8.047070572e-06
7.002857865e-07
1.573474927e-06
3.317224838e-06
5.61293904e-06
8.269764651e-06
1.138694157e-06
2.106217118e-06
3.847778443e-06
6.021319619e-06
8.456e-06
1.710272764e-06
2.696210139e-06
4.372005985e-06
6.392985476e-06
8.592552897e-06
2.436733761e-06
3.351497119e-06
4.89959767e-06
6.742288989e-06
8.713929444e-06
3.248742441e-06
4.052422875e-06
5.443727632e-06
7.103299884e-06
8.869955061e-06
4.144139757e-06
4.829086991e-06
6.051493544e-06
7.530835226e-06
9.120141455e-06
5.163125026e-06
5.734188666e-06
6.801052525e-06
8.142379617e-06
9.632066203e-06
6.347410555e-06
6.859416691e-06
7.874078873e-06
9.235653723e-06
1.084544931e-05
7.907721729e-06
8.4298901e-06
9.509192528e-06
1.103594213e-05
1.294518838e-05
9.945968959e-06
1.044813537e-05
1.148564408e-05
1.293335252e-05
1.468997901e-05
1.195891842e-05
1.228363203e-05
1.295282078e-05
1.386286822e-05
1.491129671e-05
1.264486637e-05
1.278107619e-05
1.305490107e-05
1.340703771e-05
1.377294627e-05
1.18632257e-05
1.188606231e-05
1.192087741e-05
1.194138634e-05
1.191829299e-05
1.02315561e-05
1.020618979e-05
1.014089105e-05
1.002810721e-05
9.860529192e-06
8.361217655e-06
8.324092812e-06
8.237639963e-06
8.101127647e-06
7.914490447e-06
6.727768156e-06
6.693660782e-06
6.614816113e-06
6.492919242e-06
6.330520742e-06
5.355475459e-06
5.327531112e-06
5.263510469e-06
5.165496606e-06
5.03631508e-06
4.230812215e-06
4.209166323e-06
4.159813337e-06
4.084572944e-06
3.985827093e-06
3.310875248e-06
3.294654552e-06
3.257727022e-06
3.20149594e-06
3.127788257e-06
2.554917253e-06
2.543081865e-06
2.516107026e-06
2.474997276e-06
2.421088602e-06
1.932528654e-06
1.924120389e-06
1.904885395e-06
1.875502933e-06
1.836923342e-06
1.423073655e-06
1.417277485e-06
1.40393893e-06
1.383491926e-06
1.356597315e-06
1.013191859e-06
1.009340641e-06
1.000403067e-06
9.866401271e-07
9.685011389e-07
6.933054193e-07
6.908575885e-07
6.851153435e-07
6.762233543e-07
6.644784094e-07
4.53937672e-07
4.524605117e-07
4.489466411e-07
4.434684515e-07
4.362154087e-07
2.835501789e-07
2.827084455e-07
2.806710193e-07
2.774686567e-07
2.732174018e-07
1.686646794e-07
1.682143461e-07
1.670995592e-07
1.653298507e-07
1.62973303e-07
9.543260566e-08
9.520756377e-08
9.463415048e-08
9.371262031e-08
9.248106311e-08
5.13394603e-08
5.123521232e-08
5.095908405e-08
5.050837492e-08
4.99033789e-08
2.627098118e-08
2.622661249e-08
2.610267032e-08
2.589628099e-08
2.561772618e-08
1.281199967e-08
1.279490055e-08
1.274327843e-08
1.265501418e-08
1.253505975e-08
5.983215374e-09
5.977362933e-09
5.957470755e-09
5.922227458e-09
5.873898864e-09
2.703013712e-09
2.701286558e-09
2.694163608e-09
2.680929802e-09
2.662573568e-09
1.205873854e-09
1.205437957e-09
1.202990841e-09
1.198180162e-09
1.191418749e-09
5.519431214e-10
5.518220003e-10
5.50921044e-10
5.490828662e-10
5.46474718e-10
2.747447678e-10
2.746644737e-10
2.74228701e-10
2.73374083e-10
2.721677234e-10
1.576702776e-10
1.575820195e-10
1.572846296e-10
1.567561487e-10
1.560244196e-10
1.060501425e-10
1.0595807e-10
1.057142489e-10
1.053134757e-10
1.047683475e-10
8.074661005e-11
8.065962717e-11
8.045082097e-11
8.01211177e-11
7.967722168e-11
6.618787638e-11
6.610907936e-11
6.59292868e-11
6.565148523e-11
6.527972248e-11
5.670659378e-11
5.663915252e-11
5.648644234e-11
5.625154696e-11
5.593742095e-11
4.972119917e-11
4.966295223e-11
4.953212659e-11
4.933173465e-11
4.906402053e-11
4.426096925e-11
4.42104878e-11
4.409763022e-11
4.392514732e-11
4.36948153e-11
3.985575758e-11
3.981163883e-11
3.971332689e-11
3.956330758e-11
3.936302177e-11
3.623822685e-11
3.619926184e-11
3.611266185e-11
3.598068299e-11
3.580451614e-11
3.324020103e-11
3.320533434e-11
3.31280302e-11
3.301035934e-11
3.285332396e-11
3.074383335e-11
3.071212973e-11
3.06420058e-11
3.053539688e-11
3.039316457e-11
2.864795371e-11
2.861863228e-11
2.855392898e-11
2.845568577e-11
2.832466387e-11
2.684363274e-11
2.681615353e-11
2.67556348e-11
2.666384751e-11
2.654148339e-11
2.520761676e-11
2.51817654e-11
2.512489941e-11
2.503871136e-11
2.492384562e-11
2.361871968e-11
2.359460283e-11
2.354155545e-11
2.3461158e-11
2.335401632e-11
2.198952502e-11
2.196745263e-11
2.191884837e-11
2.184513632e-11
2.174688302e-11
2.029100907e-11
2.027129124e-11
2.022778187e-11
2.016171475e-11
2.007360852e-11
1.855924421e-11
1.854203117e-11
1.850395356e-11
1.844604721e-11
1.836877563e-11
1.687360431e-11
1.685878413e-11
1.682592619e-11
1.677589057e-11
1.670908232e-11
1.532720514e-11
1.531443322e-11
1.528608447e-11
1.524288404e-11
1.518517805e-11
1.398136549e-11
1.397015466e-11
1.394528454e-11
1.39073986e-11
1.385679816e-11
1.286293111e-11
1.285285895e-11
1.283055721e-11
1.279662082e-11
1.275131345e-11
1.201167703e-11
1.200239138e-11
1.198187155e-11
1.195068415e-11
1.190906764e-11
7.477601696e-06
8.309484629e-06
8.96317663e-06
9.275168169e-06
9.363439981e-06
9.465562715e-06
9.773977278e-06
1.001367746e-05
1.007994841e-05
1.009404108e-05
1.01039647e-05
1.013836022e-05
1.012817879e-05
1.006179208e-05
1.001157202e-05
1.003232711e-05
1.01782493e-05
1.06517901e-05
1.200863016e-05
1.439955259e-05
1.598083083e-05
1.563192614e-05
1.399318723e-05
1.187060419e-05
9.723196837e-06
7.769652115e-06
6.207607666e-06
4.939373422e-06
3.912012893e-06
3.072871189e-06
2.38110572e-06
1.808510086e-06
1.336994974e-06
9.554699556e-07
6.562001817e-07
4.312262234e-07
2.703816084e-07
1.614612205e-07
9.172918293e-08
4.955733149e-08
2.54718877e-08
1.247967595e-08
5.85542939e-09
2.657387852e-09
1.190243176e-09
5.461823643e-10
2.719306262e-10
1.557257681e-10
1.044440034e-10
7.936672798e-11
6.50003358e-11
5.569472005e-11
4.885406629e-11
4.351252633e-11
3.920346036e-11
3.566339699e-11
3.272689966e-11
3.027810363e-11
2.821819382e-11
2.644168909e-11
2.482998393e-11
2.326648145e-11
2.166679401e-11
2.00020669e-11
1.830631383e-11
1.665528443e-11
1.513878305e-11
1.381606789e-11
1.271471843e-11
1.187533103e-11
1.774891315e-05
1.297298342e-06
3.712737122e-08
8.91291334e-10
1.683205841e-11
1.735366767e-05
9.090107349e-06
5.291828483e-07
1.600872706e-08
3.777596061e-10
1.737496306e-05
2.24979478e-05
2.059866832e-06
1.059492529e-07
3.215275198e-09
1.658435859e-05
2.41289126e-05
2.943842598e-06
2.269339946e-07
1.075686937e-08
1.561104852e-05
2.255843608e-05
3.461553946e-06
3.555036222e-07
2.54871733e-08
1.499131013e-05
2.174348002e-05
5.885824884e-06
7.385663815e-07
6.727323996e-08
1.499150998e-05
2.25526216e-05
9.783030356e-06
1.408049337e-06
1.569308913e-07
1.472439249e-05
2.100178517e-05
1.256542085e-05
2.010277403e-06
2.609689795e-07
1.415876916e-05
1.902545249e-05
1.40492025e-05
2.464429139e-06
3.66482586e-07
1.366634545e-05
1.79164541e-05
1.523559462e-05
2.983681871e-06
4.918962215e-07
1.327833591e-05
1.720295067e-05
1.607596182e-05
3.628128508e-06
6.528795359e-07
1.300368617e-05
1.662303868e-05
1.625265584e-05
4.505307291e-06
8.711419744e-07
1.265386809e-05
1.562599451e-05
1.52195636e-05
5.266156311e-06
1.086173382e-06
1.224817926e-05
1.470103669e-05
1.441485151e-05
6.170671464e-06
1.341547765e-06
1.193152332e-05
1.411928523e-05
1.399382603e-05
7.064257167e-06
1.643256629e-06
1.174961655e-05
1.378043454e-05
1.379264237e-05
7.91438562e-06
2.036374653e-06
1.174257272e-05
1.367544953e-05
1.382519693e-05
8.672908625e-06
2.48053501e-06
1.215191111e-05
1.408259091e-05
1.430565084e-05
8.907126375e-06
2.574614647e-06
1.368729076e-05
1.595905924e-05
1.585182702e-05
8.459664597e-06
2.317120537e-06
1.651131481e-05
1.987554206e-05
2.189294073e-05
1.714245574e-05
4.697702503e-06
1.787566616e-05
2.079269536e-05
2.328265174e-05
2.484822476e-05
2.438071915e-05
1.670779681e-05
1.797002693e-05
1.844553353e-05
1.778628869e-05
1.58233215e-05
1.435671776e-05
1.44796385e-05
1.399256682e-05
1.28522476e-05
1.116476796e-05
1.185170873e-05
1.148874568e-05
1.075983201e-05
9.709417543e-06
8.441581605e-06
9.572376079e-06
9.105637123e-06
8.418290617e-06
7.565355875e-06
6.617254615e-06
7.599766052e-06
7.175379602e-06
6.613346635e-06
5.958633347e-06
5.257877887e-06
6.061250967e-06
5.717769275e-06
5.280375207e-06
4.783141087e-06
4.258019108e-06
4.823237306e-06
4.55746592e-06
4.224220312e-06
3.84859175e-06
3.452983164e-06
3.823718561e-06
3.622766672e-06
3.37155864e-06
3.088495246e-06
2.789627461e-06
3.007867763e-06
2.858643199e-06
2.671134169e-06
2.458865684e-06
2.233525285e-06
2.334798307e-06
2.226152727e-06
2.088004911e-06
1.930322716e-06
1.761698447e-06
1.776766115e-06
1.699531783e-06
1.599538005e-06
1.484136416e-06
1.359666389e-06
1.316251284e-06
1.262970864e-06
1.192298042e-06
1.109636058e-06
1.019646411e-06
9.427229794e-07
9.073380969e-07
8.589313695e-07
8.014266616e-07
7.382070316e-07
6.489682091e-07
6.265380547e-07
5.946557298e-07
5.561043152e-07
5.132790701e-07
4.275376632e-07
4.140688385e-07
3.940051182e-07
3.692536783e-07
3.4145189e-07
2.687732192e-07
2.611596925e-07
2.491492296e-07
2.339951131e-07
2.167701357e-07
1.609416109e-07
1.569138441e-07
1.500951022e-07
1.41271433e-07
1.311135415e-07
9.169470115e-08
8.971405623e-08
8.605060856e-08
8.117352931e-08
7.548180667e-08
4.968423917e-08
4.87872755e-08
4.692798407e-08
4.437227215e-08
4.13455279e-08
2.561347081e-08
2.524462052e-08
2.435429566e-08
2.308537848e-08
2.155857822e-08
1.258634603e-08
1.245182183e-08
1.204958547e-08
1.145235502e-08
1.07213903e-08
5.922087233e-09
5.880479046e-09
5.708578505e-09
5.441439132e-09
5.108514245e-09
2.693989527e-09
2.684157655e-09
2.61407299e-09
2.499761846e-09
2.354657719e-09
1.208273694e-09
1.207022087e-09
1.179163091e-09
1.131666275e-09
1.07036831e-09
5.541591647e-10
5.541638751e-10
5.428358165e-10
5.230767843e-10
4.973170026e-10
2.750195848e-10
2.746567297e-10
2.69546521e-10
2.608501137e-10
2.495485577e-10
1.566596779e-10
1.559059421e-10
1.531120046e-10
1.487479139e-10
1.432082256e-10
1.045193082e-10
1.036131079e-10
1.017560698e-10
9.914478943e-11
9.594687241e-11
7.914426966e-11
7.82507046e-11
7.684739098e-11
7.502545248e-11
7.286130402e-11
6.46979566e-11
6.38864053e-11
6.275519712e-11
6.135181447e-11
5.971785676e-11
5.539694349e-11
5.468708325e-11
5.374600986e-11
5.260387701e-11
5.128751585e-11
4.858134903e-11
4.796528911e-11
4.716893824e-11
4.621334779e-11
4.511757011e-11
4.326796356e-11
4.273191037e-11
4.204914671e-11
4.12352936e-11
4.030464641e-11
3.898452238e-11
3.851445583e-11
3.792203238e-11
3.72191584e-11
3.641691563e-11
3.54662067e-11
3.504983629e-11
3.452959757e-11
3.391474923e-11
3.321401132e-11
3.254732546e-11
3.217380197e-11
3.171082076e-11
3.116564409e-11
3.054522965e-11
3.011207898e-11
2.977175945e-11
2.935332624e-11
2.886250949e-11
2.830492413e-11
2.806228817e-11
2.774714496e-11
2.736275439e-11
2.691369695e-11
2.640456341e-11
2.629382112e-11
2.599833687e-11
2.564038335e-11
2.522372345e-11
2.475227289e-11
2.468999379e-11
2.441208413e-11
2.40767918e-11
2.368741034e-11
2.32474357e-11
2.313597955e-11
2.287686996e-11
2.256428205e-11
2.220132961e-11
2.179130749e-11
2.154827807e-11
2.13112657e-11
2.102413249e-11
2.068999351e-11
2.031206248e-11
1.989757458e-11
1.968592528e-11
1.942755388e-11
1.912562654e-11
1.878330735e-11
1.821650724e-11
1.803174146e-11
1.780409994e-11
1.753672274e-11
1.723264707e-11
1.657899622e-11
1.641983516e-11
1.622213288e-11
1.598886769e-11
1.572278804e-11
1.507341559e-11
1.493610072e-11
1.476483867e-11
1.456221029e-11
1.433067302e-11
1.375844714e-11
1.36378445e-11
1.348770491e-11
1.331021766e-11
1.310746548e-11
1.266231487e-11
1.255394555e-11
1.241993032e-11
1.226207947e-11
1.208212119e-11
1.182640199e-11
1.172648218e-11
1.160383526e-11
1.145997384e-11
1.129637692e-11
1.826038762e-12
2.769459609e-15
0
0
0
0
0
0
0
0
0
0
0
0
0
0
0
0
0
0
0
0
0
0
0
0
0
0
0
0
0
0
0
0
0
0
0
0
0
0
0
0
0
0
0
0
0
0
0
0
0
0
0
0
0
0
0
0
0
0
5.433998888e-11
2.242571053e-11
5.686206369e-12
9.435622916e-13
1.20708255e-13
0
0
0
0
0
0
0
0
0
0
0
0
0
0
0
0
0
0
0
0
0
0
0
0
0
0
0
0
0
0
0
0
0
0
0
0
0
0
0
0
0
0
0
0
0
0
0
0
0
0
0
0
0
0
0
5.969886969e-10
4.611972581e-10
9.076976057e-11
1.490133124e-11
3.642385627e-12
1.168408162e-12
3.71567521e-13
6.207131514e-14
0
0
0
0
0
0
0
0
0
0
0
0
0
0
0
0
0
0
0
0
0
0
0
0
0
0
0
0
0
0
0
0
0
0
0
0
0
0
0
0
0
0
0
0
0
0
0
0
0
0
0
0
2.076450552e-09
3.042527168e-09
1.26133522e-09
1.804596208e-10
3.732762631e-11
1.204767837e-11
4.875664063e-12
2.026018345e-12
7.462901183e-13
1.875440651e-13
0
0
0
0
0
0
0
0
0
0
0
0
0
0
0
0
0
0
0
0
0
0
0
0
0
0
0
0
0
0
0
0
0
0
0
0
0
0
0
0
0
0
0
0
0
0
0
0
0
0
2.682551721e-09
6.41219599e-09
7.971184935e-09
1.767963241e-09
2.877334632e-10
7.490630756e-11
2.75597354e-11
1.156685545e-11
4.840968128e-12
1.844432719e-12
5.613627071e-13
8.752123745e-14
0
0
0
0
0
0
0
0
0
0
0
0
0
0
0
0
0
0
0
0
0
0
0
0
0
0
0
0
0
0
0
0
0
0
0
0
0
0
0
0
0
0
0
0
0
0
0
0
3.942866609e-09
6.702155938e-09
1.648659354e-08
9.676387524e-09
1.655012103e-09
3.229211605e-10
9.817592724e-11
3.781233805e-11
1.552213216e-11
6.168177348e-12
2.199756086e-12
6.194666278e-13
8.68401226e-14
0
0
0
0
0
0
0
0
0
0
0
0
0
0
0
0
0
0
0
0
0
0
0
0
0
0
0
0
0
0
0
0
0
0
0
0
0
0
0
0
0
0
0
0
0
0
0
9.796855493e-09
4.754437976e-09
1.957754177e-08
2.475519571e-08
8.315611494e-09
1.314818641e-09
3.005794898e-10
9.995208879e-11
3.873756427e-11
1.522189176e-11
5.632819992e-12
1.823269333e-12
4.395331492e-13
3.245654597e-14
0
0
0
0
0
0
0
0
0
0
0
0
0
0
0
0
0
0
0
0
0
0
0
0
0
0
0
0
0
0
0
0
0
0
0
0
0
0
0
0
0
0
0
0
0
0
1.972089764e-08
2.945247117e-09
1.675779992e-08
3.527059571e-08
2.694447032e-08
5.667766007e-09
9.562339862e-10
2.551561255e-10
8.882763574e-11
3.346639186e-11
1.232136209e-11
4.156092942e-12
1.176253833e-12
2.167538971e-13
2.512830615e-16
0
0
0
0
0
0
0
0
0
0
0
0
0
0
0
0
0
0
0
0
0
0
0
0
0
0
0
0
0
0
0
0
0
0
0
0
0
0
0
0
0
0
0
0
0
3.343320892e-08
2.930984651e-09
1.1414948e-08
3.809764278e-08
4.987998122e-08
2.186302702e-08
3.409835088e-09
6.75128989e-10
1.99517058e-10
6.94470541e-11
2.466957451e-11
8.296669547e-12
2.475372436e-12
5.729822895e-13
5.478588973e-14
0
0
0
0
0
0
0
0
0
0
0
0
0
0
0
0
0
0
0
0
0
0
0
0
0
0
0
0
0
0
0
0
0
0
0
0
0
0
0
0
0
0
0
0
0
5.343315292e-08
4.326549683e-09
6.176362463e-09
3.711653464e-08
6.471047225e-08
5.336730599e-08
1.221764396e-08
1.816015802e-09
4.327986942e-10
1.349438992e-10
4.534192249e-11
1.487148016e-11
4.479691236e-12
1.135018181e-12
1.826769717e-13
0
0
0
0
0
0
0
0
0
0
0
0
0
0
0
0
0
0
0
0
0
0
0
0
0
0
0
0
0
0
0
0
0
0
0
0
0
0
0
0
0
0
0
0
0
8.15048043e-08
8.510355785e-09
3.580771208e-09
3.144892815e-08
7.712920488e-08
9.110202507e-08
3.416399279e-08
5.055494273e-09
9.419427934e-10
2.519402562e-10
7.767048938e-11
2.427218632e-11
7.187762417e-12
1.883132725e-12
3.664132261e-13
1.559748551e-14
0
0
0
0
0
0
0
0
0
0
0
0
0
0
0
0
0
0
0
0
0
0
0
0
0
0
0
0
0
0
0
0
0
0
0
0
0
0
0
0
0
0
0
0
1.359849743e-07
1.325640833e-08
2.983918885e-09
2.288237989e-08
8.858282815e-08
1.30182404e-07
7.871077093e-08
1.411693734e-08
2.242392589e-09
4.826368907e-10
1.290940019e-10
3.706165375e-11
1.049785194e-11
2.752786725e-12
5.869187675e-13
5.61364474e-14
0
0
0
0
0
0
0
0
0
0
0
0
0
0
0
0
0
0
0
0
0
0
0
0
0
0
0
0
0
0
0
0
0
0
0
0
0
0
0
0
0
0
0
0
1.619540619e-07
1.908005802e-08
3.157832332e-09
1.444244193e-08
1.002567373e-07
1.771342733e-07
1.440016702e-07
3.693324738e-08
5.255688749e-09
9.310856155e-10
2.065271885e-10
5.256572748e-11
1.394506647e-11
3.601343382e-12
8.0956717e-13
1.071321916e-13
0
0
0
0
0
0
0
0
0
0
0
0
0
0
0
0
0
0
0
0
0
0
0
0
0
0
0
0
0
0
0
0
0
0
0
0
0
0
0
0
0
0
0
0
2.172545502e-07
2.859758378e-08
3.270926321e-09
1.179044578e-08
1.151913311e-07
2.357246096e-07
2.304596897e-07
8.561780488e-08
1.219511977e-08
1.86626872e-09
3.351992627e-10
7.294879439e-11
1.770401651e-11
4.442109413e-12
1.033440973e-12
1.639921391e-13
2.65725755e-17
0
0
0
0
0
0
0
0
0
0
0
0
0
0
0
0
0
0
0
0
0
0
0
0
0
0
0
0
0
0
0
0
0
0
0
0
0
0
0
0
0
0
0
2.890877639e-07
4.258092178e-08
6.953264216e-09
1.499981459e-08
1.472605422e-07
3.163638985e-07
3.271264119e-07
1.656335288e-07
2.812043962e-08
3.957598151e-09
5.517153233e-10
9.71097978e-11
2.105614393e-11
5.118745901e-12
1.226195927e-12
2.189149112e-13
1.85727591e-15
0
0
0
0
0
0
0
0
0
0
0
0
0
0
0
0
0
0
0
0
0
0
0
0
0
0
0
0
0
0
0
0
0
0
0
0
0
0
0
0
0
0
0
3.884185167e-07
4.5233197e-08
1.048749381e-08
2.46965513e-08
2.266530345e-07
4.44048022e-07
4.380965694e-07
2.553191965e-07
5.932690988e-08
8.697163972e-09
9.62753887e-10
1.294823427e-10
2.427614048e-11
5.71222432e-12
1.406144622e-12
2.731591033e-13
6.880920215e-15
0
0
0
0
0
0
0
0
0
0
0
0
0
0
0
0
0
0
0
0
0
0
0
0
0
0
0
0
0
0
0
0
0
0
0
0
0
0
0
0
0
0
0
5.080228751e-07
8.832573699e-08
1.980716743e-08
4.747778447e-08
4.175413285e-07
6.512715861e-07
5.607524135e-07
3.245734779e-07
1.080583866e-07
1.82391555e-08
1.797610993e-09
1.880160837e-10
3.036709349e-11
6.864949303e-12
1.706192441e-12
3.52527266e-13
1.873963388e-14
0
0
0
0
0
0
0
0
0
0
0
0
0
0
0
0
0
0
0
0
0
0
0
0
0
0
0
0
0
0
0
0
0
0
0
0
0
0
0
0
0
0
0
5.515067857e-07
1.054217682e-07
5.291553163e-08
2.408155029e-07
8.812416277e-07
9.407595531e-07
6.771553196e-07
3.740694694e-07
1.516401942e-07
3.662260707e-08
4.251882856e-09
3.928283837e-10
5.229761492e-11
1.029747388e-11
2.417162588e-12
5.159412092e-13
4.835279081e-14
0
0
0
0
0
0
0
0
0
0
0
0
0
0
0
0
0
0
0
0
0
0
0
0
0
0
0
0
0
0
0
0
0
0
0
0
0
0
0
0
0
0
0
5.050752513e-07
1.379334848e-07
2.405994291e-07
1.434999324e-06
1.603312185e-06
1.219852079e-06
7.595351093e-07
4.087349196e-07
1.872013688e-07
6.561915987e-08
1.384929281e-08
1.589085962e-09
1.616697416e-10
2.246066218e-11
4.261995826e-12
8.702097089e-13
1.151456499e-13
0
0
0
0
0
0
0
0
0
0
0
0
0
0
0
0
0
0
0
0
0
0
0
0
0
0
0
0
0
0
0
0
0
0
0
0
0
0
0
0
0
0
0
1.357185304e-06
1.137938225e-06
4.662711016e-06
3.451152692e-06
2.244106203e-06
1.387396784e-06
8.138016326e-07
4.463592462e-07
2.245081803e-07
9.939777465e-08
3.398411711e-08
6.955332429e-09
7.853722959e-10
7.869259724e-11
1.0432526e-11
1.778539627e-12
2.716559264e-13
2.713905563e-15
0
0
0
0
0
0
0
0
0
0
0
0
0
0
0
0
0
0
0
0
0
0
0
0
0
0
0
0
0
0
0
0
0
0
0
0
0
0
0
0
0
0
1.993981743e-05
1.076500606e-05
6.380251471e-06
3.874488188e-06
2.362985318e-06
1.437257113e-06
8.55484732e-07
4.900872022e-07
2.658031327e-07
1.331561354e-07
5.869079596e-08
1.985124291e-08
3.966934602e-09
4.283969861e-10
4.053807687e-11
4.935550977e-12
6.996620492e-13
5.541233127e-14
0
0
0
0
0
0
0
0
0
0
0
0
0
0
0
0
0
0
0
0
0
0
0
0
0
0
0
0
0
0
0
0
0
0
0
0
0
0
0
0
0
0
1.248726537e-05
8.475225266e-06
5.549496681e-06
3.568183701e-06
2.276575565e-06
1.437880493e-06
8.914133803e-07
5.369225327e-07
3.102823077e-07
1.689997713e-07
8.440176778e-08
3.676960024e-08
1.217095097e-08
2.330596932e-09
2.341254447e-10
2.043600521e-11
2.197105203e-12
2.335675088e-13
0
0
0
0
0
0
0
0
0
0
0
0
0
0
0
0
0
0
0
0
0
0
0
0
0
0
0
0
0
0
0
0
0
0
0
0
0
0
0
0
0
0
8.961320614e-06
6.597320602e-06
4.64702803e-06
3.186561192e-06
2.146547318e-06
1.421303972e-06
9.217154329e-07
5.817091535e-07
3.540296646e-07
2.051024952e-07
1.109916432e-07
5.449138632e-08
2.307345111e-08
7.319066288e-09
1.30680556e-09
1.185185184e-10
9.266392063e-12
8.492236543e-13
3.848309553e-14
0
0
0
0
0
0
0
0
0
0
0
0
0
0
0
0
0
0
0
0
0
0
0
0
0
0
0
0
0
0
0
0
0
0
0
0
0
0
0
0
0
6.932559692e-06
5.333861116e-06
3.951650832e-06
2.847797364e-06
2.008618573e-06
1.387366932e-06
9.362733994e-07
6.146696864e-07
3.899139801e-07
2.366983761e-07
1.356352856e-07
7.1905076e-08
3.418144992e-08
1.382004384e-08
4.109030306e-09
6.66508931e-10
5.300403694e-11
3.69398445e-12
2.485820167e-13
0
0
0
0
0
0
0
0
0
0
0
0
0
0
0
0
0
0
0
0
0
0
0
0
0
0
0
0
0
0
0
0
0
0
0
0
0
0
0
0
0
5.529877028e-06
4.377634534e-06
3.358198183e-06
2.524330106e-06
1.847781611e-06
1.321859788e-06
9.227004453e-07
6.260653867e-07
4.107929471e-07
2.587264779e-07
1.547858911e-07
8.666203957e-08
4.442222797e-08
2.01476601e-08
7.63502557e-09
2.074967135e-09
2.973671941e-10
2.083917255e-11
1.233451244e-12
2.887630255e-14
0
0
0
0
0
0
0
0
0
0
0
0
0
0
0
0
0
0
0
0
0
0
0
0
0
0
0
0
0
0
0
0
0
0
0
0
0
0
0
0
4.469475939e-06
3.64027918e-06
2.889303737e-06
2.23727443e-06
1.689565259e-06
1.243070832e-06
8.899939326e-07
6.198360081e-07
4.177894461e-07
2.708993276e-07
1.675563282e-07
9.770554238e-08
5.283118716e-08
2.585331133e-08
1.102521512e-08
3.847465985e-09
9.320191539e-10
1.14312179e-10
6.884919356e-12
2.97592473e-13
0
0
0
0
0
0
0
0
0
0
0
0
0
0
0
0
0
0
0
0
0
0
0
0
0
0
0
0
0
0
0
0
0
0
0
0
0
0
0
0
3.669301209e-06
3.045361242e-06
2.466513216e-06
1.951315935e-06
1.508039271e-06
1.137005558e-06
8.339968498e-07
5.937046133e-07
4.087771839e-07
2.71232934e-07
1.72172865e-07
1.035413161e-07
5.821626283e-08
3.004346503e-08
1.385182064e-08
5.470890419e-09
1.723936592e-09
3.604733019e-10
3.592676134e-11
1.732451498e-12
1.68550996e-14
0
0
0
0
0
0
0
0
0
0
0
0
0
0
0
0
0
0
0
0
0
0
0
0
0
0
0
0
0
0
0
0
0
0
0
0
0
0
0
3.00826187e-06
2.532110062e-06
2.082874673e-06
1.675116735e-06
1.316792829e-06
1.010708983e-06
7.558981245e-07
5.488797644e-07
3.855037663e-07
2.605275911e-07
1.687043412e-07
1.038251962e-07
6.006807763e-08
3.219230084e-08
1.565692588e-08
6.705205453e-09
2.410657854e-09
6.68415913e-10
1.159172128e-10
8.847162881e-12
2.703759395e-13
0
0
0
0
0
0
0
0
0
0
0
0
0
0
0
0
0
0
0
0
0
0
0
0
0
0
0
0
0
0
0
0
0
0
0
0
0
0
0
2.451834763e-06
2.086339132e-06
1.736734099e-06
1.41440486e-06
1.126402718e-06
8.761867078e-07
6.644391292e-07
4.897922078e-07
3.494662614e-07
2.402080173e-07
1.580968173e-07
9.894310737e-08
5.84339405e-08
3.21719249e-08
1.624557207e-08
7.353801204e-09
2.883691225e-09
9.288667773e-10
2.253314821e-10
3.193171322e-11
1.82080721e-12
5.386610049e-15
0
0
0
0
0
0
0
0
0
0
0
0
0
0
0
0
0
0
0
0
0
0
0
0
0
0
0
0
0
0
0
0
0
0
0
0
0
0
1.977107442e-06
1.69670665e-06
1.425230419e-06
1.171657758e-06
9.420375872e-07
7.398689474e-07
5.665655899e-07
4.219138735e-07
3.044351544e-07
2.117785326e-07
1.412519577e-07
8.9706219e-08
5.374832722e-08
3.016619876e-08
1.564835025e-08
7.368489858e-09
3.069659216e-09
1.085847395e-09
3.057325009e-10
6.200398663e-11
6.671445786e-12
2.020795055e-13
0
0
0
0
0
0
0
0
0
0
0
0
0
0
0
0
0
0
0
0
0
0
0
0
0
0
0
0
0
0
0
0
0
0
0
0
0
0
1.568368449e-06
1.35469688e-06
1.145548685e-06
9.4804254e-07
7.672709346e-07
6.064828569e-07
4.673449527e-07
3.502134791e-07
2.543997279e-07
1.783766795e-07
1.200411462e-07
7.704665661e-08
4.67966477e-08
2.660940687e-08
1.406616745e-08
6.812197025e-09
2.962344172e-09
1.122427893e-09
3.499713243e-10
8.083263619e-11
1.263838863e-11
8.45259327e-13
0
0
0
0
0
0
0
0
0
0
0
0
0
0
0
0
0
0
0
0
0
0
0
0
0
0
0
0
0
0
0
0
0
0
0
0
0
0
1.215839013e-06
1.055203355e-06
8.964200274e-07
7.45115383e-07
6.054906286e-07
4.803947064e-07
3.714603561e-07
2.792720351e-07
2.035380949e-07
1.432685961e-07
9.693277855e-08
6.26492751e-08
3.840786837e-08
2.213724816e-08
1.186272209e-08
5.865366576e-09
2.632886928e-09
1.047658919e-09
3.53000395e-10
9.288731475e-11
1.845018959e-11
2.140334651e-12
4.536521872e-14
0
0
0
0
0
0
0
0
0
0
0
0
0
0
0
0
0
0
0
0
0
0
0
0
0
0
0
0
0
0
0
0
0
0
0
0
0
9.148537904e-07
7.96623847e-07
6.787524156e-07
5.6562014e-07
4.605949022e-07
3.660475901e-07
2.834180987e-07
2.133153561e-07
1.556364954e-07
1.096987048e-07
7.438153259e-08
4.826217223e-08
2.976960363e-08
1.732406185e-08
9.416493467e-09
4.732029742e-09
2.178013116e-09
9.010894618e-10
3.244716637e-10
9.292196638e-11
1.703096426e-11
2.278705513e-12
1.001243327e-13
0
0
0
0
0
0
0
0
0
0
0
0
0
0
0
0
0
0
0
0
0
0
0
0
0
0
0
0
0
0
0
0
0
0
0
0
0
6.640300457e-07
5.795210716e-07
4.946368126e-07
4.12700826e-07
3.363163599e-07
2.673551964e-07
2.069866741e-07
1.557392237e-07
1.135872998e-07
8.005026345e-08
5.430411562e-08
3.529634047e-08
2.185410568e-08
1.279964873e-08
7.033845012e-09
3.587424627e-09
1.684918964e-09
7.190169623e-10
2.71353558e-10
8.327777218e-11
1.671838155e-11
9.718554629e-14
0
0
0
0
0
0
0
0
0
0
0
0
0
0
0
0
0
0
0
0
0
0
0
0
0
0
0
0
0
0
0
0
0
0
0
0
0
0
4.626531437e-07
4.044195559e-07
3.455294344e-07
2.88416634e-07
2.350102362e-07
1.867136716e-07
1.444158785e-07
1.085303835e-07
7.905692974e-08
5.565650299e-08
3.773660419e-08
2.453995237e-08
1.523005654e-08
8.96597756e-09
4.970282259e-09
2.571192806e-09
1.228907891e-09
5.387696729e-10
2.123341749e-10
7.164770206e-11
1.591894052e-11
2.262170624e-13
3.747496311e-16
0
0
0
0
0
0
0
0
0
0
0
0
0
0
0
0
0
0
0
0
0
0
0
0
0
0
0
0
0
0
0
0
0
0
0
0
0
3.083338311e-07
2.698685365e-07
2.307163695e-07
1.92585898e-07
1.568422849e-07
1.244855692e-07
9.615324913e-08
7.214528949e-08
5.246697806e-08
3.68841176e-08
2.498577314e-08
1.624882959e-08
1.009966505e-08
5.968376134e-09
3.332377274e-09
1.74513105e-09
8.490995916e-10
3.813972382e-10
1.560515136e-10
5.586413371e-11
1.368430663e-11
2.580204518e-13
0
0
0
0
0
0
0
0
0
0
0
0
0
0
0
0
0
0
0
0
0
0
0
0
0
0
0
0
0
0
0
0
0
0
0
0
0
0
1.960881986e-07
1.718275159e-07
1.469736522e-07
1.226706865e-07
9.983846623e-08
7.915377235e-08
6.104939479e-08
4.572979659e-08
3.320033978e-08
2.330533459e-08
1.577237226e-08
1.025695632e-08
6.3846482e-09
3.787225032e-09
2.129441748e-09
1.127965502e-09
5.588163464e-10
2.571505587e-10
1.091663902e-10
4.168862879e-11
1.301641582e-11
4.805936319e-13
0
0
0
0
0
0
0
0
0
0
0
0
0
0
0
0
0
0
0
0
0
0
0
0
0
0
0
0
0
0
0
0
0
0
0
0
0
0
1.188157921e-07
1.042416399e-07
8.921279778e-08
7.445777958e-08
6.056524711e-08
4.796977724e-08
3.6949819e-08
2.763719031e-08
2.003612761e-08
1.404822328e-08
9.501951073e-09
6.181794104e-09
3.855439447e-09
2.29649385e-09
1.300841531e-09
6.975321211e-10
3.522590588e-10
1.666419851e-10
7.357813697e-11
2.992074403e-11
1.057868734e-11
2.275871843e-12
0
0
0
0
0
0
0
0
0
0
0
0
0
0
0
0
0
0
0
0
0
0
0
0
0
0
0
0
0
0
0
0
0
0
0
0
0
0
6.853111078e-08
6.020585394e-08
5.156257241e-08
4.304156913e-08
3.500009231e-08
2.770264799e-08
2.131907292e-08
1.593000328e-08
1.15385253e-08
8.086033363e-09
5.470346305e-09
3.563750992e-09
2.229576139e-09
1.335637003e-09
7.638108473e-10
4.157531803e-10
2.147021291e-10
1.049694486e-10
4.855393937e-11
2.10899084e-11
8.262778096e-12
2.638352661e-12
0
0
0
0
0
0
0
0
0
0
0
0
0
0
0
0
0
0
0
0
0
0
0
0
0
0
0
0
0
0
0
0
0
0
0
0
0
0
3.761540567e-08
3.309776892e-08
2.837443537e-08
2.36975749e-08
1.927260942e-08
1.525209279e-08
1.173425833e-08
8.766016564e-09
6.349736377e-09
4.452575696e-09
3.017093244e-09
1.97171374e-09
1.240262453e-09
7.495156322e-10
4.344973497e-10
2.413978444e-10
1.285340005e-10
6.563803789e-11
3.223298565e-11
1.512824883e-11
6.535190254e-12
2.411190241e-12
6.642901948e-13
0
0
0
0
0
0
0
0
0
0
0
0
0
0
0
0
0
0
0
0
0
0
0
0
0
0
0
0
0
0
0
0
0
0
0
0
0
1.965867186e-08
1.733070622e-08
1.487866128e-08
1.243933257e-08
1.01245942e-08
8.017846494e-09
6.17301872e-09
4.616120314e-09
3.348962967e-09
2.354305329e-09
1.601724096e-09
1.05331673e-09
6.688967499e-10
4.100080039e-10
2.427024363e-10
1.389756545e-10
7.72246339e-11
4.175600439e-11
2.216180671e-11
1.136758504e-11
5.492288189e-12
2.253298794e-12
7.623653663e-13
0
0
0
0
0
0
0
0
0
0
0
0
0
0
0
0
0
0
0
0
0
0
0
0
0
0
0
0
0
0
0
0
0
0
0
0
0