/*--------------------------------*- C++ -*----------------------------------*\
  =========                 |
  \\      /  F ield         | OpenFOAM: The Open Source CFD Toolbox
   \\    /   O peration     | Website:  https://openfoam.org
    \\  /    A nd           | Version:  10
     \\/     M anipulation  |
\*---------------------------------------------------------------------------*/
FoamFile
{
    format      ascii;
    class       volScalarField;
    location    "0.02498436188";
    object      CH2(S)_0;
}
// * * * * * * * * * * * * * * * * * * * * * * * * * * * * * * * * * * * * * //

dimensions      [0 0 0 0 0 0 0];

internalField   nonuniform List<scalar> 
5170
(
0
0
0
0
0
0
0
0
0
0
0
0
0
0
0
0
0
0
0
0
0
0
0
0
0
0
0
0
0
0
0
0
0
0
0
0
0
0
0
0
0
0
0
0
0
0
0
0
0
0
0
0
0
0
0
0
0
0
0
0
0
0
0
0
0
0
0
0
0
0
0
0
0
0
0
0
0
0
0
0
0
0
0
0
0
0
0
0
0
0
0
0
0
0
0
0
0
0
0
0
1.362665083e-20
0
0
0
0
1.806924042e-20
0
0
0
0
3.970927373e-21
1.859012405e-21
0
0
0
0
3.511529623e-21
1.124899592e-21
7.922241692e-22
6.116439192e-20
0
0
0
0
0
0
0
0
1.792225352e-16
0
0
0
0
3.694109944e-15
1.421657122e-12
7.326968882e-13
2.477820734e-14
2.62676935e-14
6.132991025e-13
0
0
6.131181818e-13
1.99911567e-13
9.511194724e-13
0
0
3.522932875e-11
0
0
0
5.82663069e-13
1.96921476e-11
0
1.855401035e-13
6.411604244e-14
1.003322853e-13
0
0
0
6.548964397e-13
3.304885504e-14
0
0
8.966254447e-14
4.520404407e-12
1.160857491e-12
8.991367761e-14
1.786672213e-14
1.846837339e-12
9.426187904e-12
4.728727494e-12
9.179657766e-13
9.068313347e-13
4.786306545e-12
6.72806078e-12
4.856263508e-12
4.08025203e-12
3.99282896e-12
5.659693289e-12
7.312431029e-12
3.916695731e-12
7.932696054e-12
7.895242062e-12
5.599348417e-12
1.170151385e-11
5.186880114e-12
6.099629463e-12
6.324270558e-12
6.657506048e-12
8.073881772e-12
1.142136164e-11
5.893133533e-12
4.898250328e-12
1.060985996e-11
7.397480128e-12
1.001828862e-10
2.215808474e-10
3.485736772e-11
7.442314414e-12
6.149764624e-13
0
0
0
0
2.404230837e-12
0
0
7.929077728e-14
1.275948851e-12
3.792556642e-11
0
0
3.958229712e-14
1.783406645e-12
3.249375665e-11
0
1.111091187e-14
3.333594656e-13
6.049894432e-12
1.114534658e-10
0
6.67399197e-14
8.862748675e-13
1.278311858e-11
1.850764425e-10
4.575517543e-15
1.325666746e-13
9.623699116e-13
1.49330035e-11
1.614250316e-10
2.027124718e-14
2.096575001e-13
1.040798889e-12
1.330757345e-11
1.108407634e-10
2.932132503e-14
1.867827123e-13
9.871158143e-13
1.03479409e-11
7.457399243e-11
1.909636006e-14
4.722381987e-14
1.234124123e-12
1.22364671e-11
9.083995009e-11
2.683196412e-14
1.36835169e-13
1.931474876e-12
1.764943074e-11
1.22867947e-10
8.35077379e-14
3.844815458e-13
2.961933384e-12
2.352522456e-11
1.472976719e-10
6.57162575e-14
4.172560089e-13
3.309399118e-12
2.159347242e-11
1.130898577e-10
0
4.586109468e-13
3.07935053e-12
1.690244942e-11
7.720705216e-11
9.9509903e-14
6.159483757e-13
3.793500706e-12
2.070021054e-11
1.005927464e-10
2.206004397e-13
9.242315374e-13
5.04444189e-12
2.558628828e-11
1.165433527e-10
3.573539995e-13
1.227521978e-12
5.801133142e-12
2.616758818e-11
1.074400283e-10
5.1997989e-13
1.539106987e-12
6.335344955e-12
2.300923444e-11
8.471832032e-11
8.184038381e-13
2.058817773e-12
7.434202729e-12
2.276073117e-11
8.582104748e-11
9.363119027e-13
3.141017047e-12
1.470145896e-11
5.394604936e-11
2.07284522e-10
2.565524391e-12
5.901116374e-12
1.93454763e-11
6.517378369e-11
2.143832138e-10
3.131556087e-12
5.999697707e-12
1.588110677e-11
4.39365651e-11
1.176049665e-10
2.857841393e-12
4.405271081e-12
8.951747506e-12
1.955103588e-11
4.24094569e-11
1.558198063e-12
2.061420428e-12
3.388257921e-12
6.054240956e-12
1.09842422e-11
5.528947368e-13
6.814283977e-13
9.821792728e-13
1.448691818e-12
2.251893061e-12
1.570286748e-13
1.754158803e-13
2.152635524e-13
2.911803704e-13
3.912624453e-13
3.253601884e-14
3.588632721e-14
4.236299054e-14
4.90352766e-14
5.705836094e-14
6.6176066e-15
7.009295625e-15
7.562428447e-15
7.950087507e-15
8.678975359e-15
1.234804848e-15
1.251339872e-15
1.290510198e-15
1.291633458e-15
1.308634073e-15
2.139513842e-16
2.174306133e-16
2.146577042e-16
2.154964064e-16
2.073251237e-16
3.747589063e-17
3.799479913e-17
3.835606051e-17
3.929312136e-17
3.813821293e-17
8.365215904e-20
4.541816673e-19
1.442633536e-18
4.379476994e-18
5.719059871e-18
1.165458171e-18
1.184664009e-18
1.2374003e-18
1.333722813e-18
1.382015373e-18
4.41337599e-19
4.39511025e-19
4.306544592e-19
4.255248384e-19
4.181464571e-19
2.230452232e-19
2.24193306e-19
2.266504011e-19
2.307451066e-19
2.36456258e-19
2.062671352e-19
2.093765594e-19
2.160776586e-19
2.254648547e-19
2.367297526e-19
2.756684733e-19
2.800982793e-19
2.895784858e-19
3.029880776e-19
3.189114735e-19
3.700902698e-19
3.771444347e-19
3.915147897e-19
4.178210015e-19
4.541397363e-19
4.069855062e-19
4.174192411e-19
4.402526713e-19
4.737080404e-19
5.231486785e-19
3.576795949e-19
3.657490716e-19
3.832983179e-19
4.098821731e-19
4.477842557e-19
2.272771098e-19
2.328752138e-19
2.42111919e-19
2.574159068e-19
2.572202018e-19
4.74565861e-20
4.604903649e-20
4.283673078e-20
3.806560106e-20
3.139387467e-20
0
0
0
0
1.053901154e-21
0
1.060863905e-20
1.187286345e-20
1.133876758e-20
1.423188344e-20
0
0
0
0
0
2.078882355e-21
2.374266742e-21
1.297260467e-21
2.741735938e-22
0
1.484024872e-20
1.330520072e-20
9.279730631e-21
1.646497425e-21
0
0
0
0
0
0
2.674003893e-20
2.441863584e-20
1.272550445e-20
1.073098847e-20
1.020522264e-20
1.558090885e-21
1.517810977e-21
1.332629994e-21
1.169089377e-21
9.878909463e-22
0
0
0
0
1.408617531e-22
0
0
0
0
0
0
0
0
4.234592731e-21
6.333135466e-21
9.29373711e-21
9.343921045e-21
9.714283394e-21
9.985070004e-21
1.033678261e-20
1.055025937e-20
1.03755181e-20
9.96697107e-21
9.276949881e-21
8.170735295e-21
2.121687256e-20
2.084145789e-20
2.035640669e-20
2.036578339e-20
2.130432763e-20
3.939624309e-20
3.944684399e-20
3.968159748e-20
4.036511164e-20
4.24969737e-20
4.870234531e-21
5.148143486e-21
5.425667998e-21
5.291148277e-21
3.917496433e-21
5.152897343e-21
5.339448043e-21
5.398132504e-21
4.961400959e-21
3.281183958e-21
4.944504121e-21
5.256912523e-21
5.577359758e-21
5.461776386e-21
3.993755987e-21
1.907892364e-19
1.773464357e-19
1.501856169e-19
1.145398362e-19
7.80878766e-20
1.764472296e-18
1.742419187e-18
1.696451531e-18
1.632270965e-18
1.561666511e-18
4.708821363e-18
4.615003691e-18
4.405908798e-18
4.080687886e-18
3.637443939e-18
3.154165676e-18
3.142181003e-18
3.127142953e-18
3.156350575e-18
3.416779752e-18
4.543419227e-18
4.452067756e-18
4.26582489e-18
4.008540436e-18
3.691858344e-18
4.859121494e-18
4.746612853e-18
4.516644559e-18
4.199024649e-18
3.815186311e-18
7.876793611e-18
7.824522148e-18
7.727226416e-18
7.611498178e-18
7.492722257e-18
2.459064392e-17
2.438200321e-17
2.395061777e-17
2.333165012e-17
2.256157227e-17
4.450231636e-17
4.40127327e-17
4.296943334e-17
4.142290313e-17
3.939558123e-17
5.64935378e-17
5.58151233e-17
5.438822139e-17
5.231336358e-17
4.969923864e-17
8.224375384e-17
8.189068251e-17
8.122442462e-17
8.041866573e-17
7.969129177e-17
2.409464709e-11
4.320433722e-10
2.295851035e-10
8.87074733e-10
1.194248357e-09
8.424007609e-10
4.722929361e-10
2.999006846e-10
3.977611723e-10
5.044029205e-10
5.568505378e-10
3.654478917e-10
2.270650745e-10
3.286805148e-10
3.527111373e-10
3.025642221e-10
2.085432067e-10
2.862394294e-10
5.719399014e-10
5.202979435e-10
2.379740735e-10
7.356283446e-11
1.686201898e-11
3.119873117e-12
4.924862969e-13
6.513184124e-14
9.182418476e-15
1.327187626e-15
1.872755354e-16
3.432106037e-17
5.650835849e-18
1.346474525e-18
4.14429593e-19
2.412127264e-19
2.440928423e-19
3.292956604e-19
4.845799353e-19
5.648540426e-19
4.801248663e-19
2.489126431e-19
2.542690504e-20
0
8.727100519e-21
0
0
0
0
1.026766737e-20
8.746877329e-22
8.346761141e-22
0
7.109771135e-21
1.057132128e-20
6.860920205e-21
2.229487276e-20
4.078807919e-20
2.810719883e-21
2.123883434e-21
2.712943723e-21
5.5039949e-20
1.519730058e-18
3.279731004e-18
3.733055682e-18
3.398779359e-18
3.489682693e-18
7.372225853e-18
2.191558132e-17
3.766764132e-17
4.749683769e-17
7.92066328e-17
5.921783427e-11
1.284300123e-10
1.912639584e-11
1.140542583e-10
5.774867545e-12
2.430720226e-09
4.042599975e-08
2.326674709e-09
7.735446742e-11
3.163550041e-11
9.206112317e-10
7.360276227e-09
3.351245793e-09
3.135111754e-10
1.309590021e-10
4.375079481e-09
5.923832085e-08
7.075248657e-07
5.301517082e-08
2.856325583e-09
5.06699998e-09
5.523667339e-08
5.161467543e-07
5.410955507e-08
3.900330941e-09
3.171493607e-09
2.71758997e-08
1.900538626e-07
2.725128955e-08
2.660407193e-09
1.56629829e-09
1.112567247e-08
6.586553644e-08
1.25925203e-08
1.694246009e-09
9.953882258e-10
7.464873137e-09
5.128516825e-08
2.465566256e-07
3.066115472e-08
1.391576432e-09
1.264275948e-08
9.409487978e-08
6.66684212e-07
9.673475295e-08
1.674847406e-09
1.225855532e-08
8.260147287e-08
4.988898114e-07
8.459726781e-08
1.745246133e-09
9.261988565e-09
5.497799813e-08
2.967469782e-07
5.745669625e-08
1.019972925e-09
6.224742963e-09
3.416956432e-08
1.777031738e-07
9.296484488e-08
6.002345106e-10
5.560424077e-09
3.014299001e-08
1.595794328e-07
5.235794186e-07
9.52494907e-10
6.221027338e-09
2.904567998e-08
1.486108468e-07
5.774709644e-07
9.335807751e-10
5.328997747e-09
2.473113913e-08
1.188448994e-07
4.592025678e-07
7.916267665e-10
3.942290695e-09
2.057965692e-08
9.146573917e-08
3.458345222e-07
4.886657188e-10
2.358206342e-09
1.60579608e-08
7.331698906e-08
2.754846768e-07
7.415545708e-10
3.810244093e-09
1.829192481e-08
8.018710624e-08
3.011520563e-07
1.418893042e-09
7.095918134e-09
3.288397141e-08
1.443540192e-07
5.428148476e-07
1.240950902e-09
5.735946036e-09
2.652181774e-08
1.329103348e-07
7.11913814e-07
4.928675951e-10
1.621754197e-09
4.937960907e-09
1.477509726e-08
4.226216006e-08
1.360923215e-10
3.431446842e-10
7.633435434e-10
1.541810867e-09
2.738037591e-09
2.851012341e-11
5.89386981e-11
1.051140995e-10
1.623272699e-10
2.066850414e-10
4.847449308e-12
8.484473614e-12
1.279149005e-11
1.656012623e-11
1.737279543e-11
7.190397912e-13
1.065597794e-12
1.399292744e-12
1.591911263e-12
1.488678785e-12
8.240899964e-14
1.056583052e-13
1.203295835e-13
1.204164221e-13
1.024142127e-13
1.052688757e-14
1.180083e-14
1.2082282e-14
1.083216148e-14
8.494773111e-15
1.398574556e-15
1.397215499e-15
1.334093558e-15
1.014181742e-15
7.652640057e-16
1.218178053e-16
1.810868964e-16
1.725844016e-16
9.714017867e-17
0
2.709429337e-17
0
1.749477363e-17
1.453995997e-17
4.692190386e-18
5.289708067e-18
3.088320415e-18
2.138110015e-18
2.51958448e-18
1.690122284e-18
1.320784315e-18
1.019311751e-18
7.680311625e-19
6.722068552e-19
5.499040711e-19
4.10891622e-19
3.721115574e-19
3.504633663e-19
3.269858084e-19
3.029432505e-19
2.483547878e-19
2.484653348e-19
2.506216755e-19
2.661311928e-19
2.938049246e-19
2.519511667e-19
2.665153838e-19
2.831716831e-19
2.934226166e-19
4.490652591e-19
3.40632925e-19
3.840810663e-19
4.884237691e-19
6.508628485e-19
9.386382966e-19
5.267230867e-19
6.286649401e-19
7.751294409e-19
9.88766869e-19
1.369961049e-18
6.257180097e-19
7.419875751e-19
8.70771992e-19
1.033677074e-18
1.237099085e-18
5.331176788e-19
5.852254165e-19
6.127818129e-19
6.796424228e-19
7.758186541e-19
2.361023566e-19
2.216685747e-19
2.273084645e-19
2.677692567e-19
4.092079727e-19
1.603899447e-20
6.190610552e-21
6.047672346e-21
6.086430037e-20
4.795777444e-20
0
5.219964394e-21
1.785207763e-20
1.479773324e-21
0
0
0
0
0
0
0
0
0
0
0
0
0
0
0
0
0
0
0
0
1.317328788e-20
0
0
3.138008611e-20
2.67997872e-20
7.803570825e-21
1.13509144e-20
6.162676627e-21
5.213153773e-21
1.154092051e-21
0
3.902104349e-22
0
0
0
0
4.323018114e-23
0
0
0
0
0
1.116507963e-21
0
2.700822567e-21
8.742843146e-21
7.874103204e-21
9.369376693e-21
1.060287818e-20
1.153681527e-20
1.126336219e-20
1.108808704e-20
1.133911101e-20
1.03325924e-20
6.997822916e-21
1.509001079e-21
4.603812184e-21
9.851388865e-22
2.689872428e-23
1.347673447e-21
1.25103335e-20
2.2215524e-20
2.709567266e-20
3.290039894e-20
2.515978983e-20
2.490198429e-21
3.359632754e-20
5.818111185e-21
3.08002859e-21
4.526135102e-21
4.703639042e-21
5.804033454e-21
5.62122594e-21
4.767303917e-21
3.978087746e-21
3.416581685e-21
4.968936656e-21
5.133932237e-21
4.651067575e-21
4.668565292e-21
5.873815206e-21
5.504634757e-21
4.788211443e-21
4.58333001e-21
9.106068662e-21
1.186407444e-20
1.747220682e-20
5.826361261e-21
2.310181967e-20
1.288209244e-19
2.498572136e-19
1.436803118e-18
1.256119966e-18
1.136044284e-18
8.60245092e-19
6.354292532e-19
2.757095172e-18
1.882600529e-18
1.134604438e-18
7.286255855e-19
8.375118108e-19
4.109193081e-18
3.543822913e-18
1.83526551e-18
7.246656657e-19
1.806544681e-19
2.870393463e-18
2.013216195e-18
1.182665927e-18
5.089273156e-19
1.529438292e-19
2.937212605e-18
2.200518571e-18
1.681030486e-18
1.417939774e-18
1.418643054e-18
7.111654949e-18
6.783074016e-18
6.469217025e-18
6.132499166e-18
5.830132218e-18
2.076534115e-17
1.885156465e-17
1.63947354e-17
1.345844944e-17
1.053877246e-17
3.454820046e-17
2.936293669e-17
2.275338556e-17
1.698510999e-17
1.121500759e-17
4.317358394e-17
3.626154179e-17
2.918751271e-17
2.313382083e-17
1.898791435e-17
7.757909005e-17
7.563204442e-17
7.498930984e-17
7.683056274e-17
7.790400396e-17
1.414201735e-14
2.172572864e-16
0
0
0
0
0
0
0
0
0
0
0
0
0
0
0
0
0
0
0
0
0
0
0
0
0
0
0
0
0
0
0
0
0
0
0
0
0
0
0
0
0
0
0
0
0
0
0
0
0
0
0
0
0
0
0
0
0
0
1.37361697e-13
2.146456225e-14
0
0
0
0
0
0
0
0
0
0
0
0
0
0
0
0
0
0
0
0
0
0
0
0
0
0
0
0
0
0
0
0
0
0
0
0
0
0
0
0
0
0
0
0
0
0
0
0
0
0
0
0
0
0
0
0
0
0
8.800407325e-13
0
0
0
0
0
0
0
0
0
0
0
0
0
0
0
0
0
0
0
0
0
0
0
0
0
0
0
0
0
0
0
0
0
0
0
0
0
0
0
0
0
0
0
0
0
0
0
0
0
0
0
0
0
0
0
0
0
0
0
4.408358227e-11
1.651692348e-13
1.326771276e-14
0
0
0
0
0
0
0
0
0
0
0
0
0
0
0
0
0
0
0
0
0
0
0
0
0
0
0
0
0
0
0
0
0
0
0
0
0
0
0
0
0
0
0
0
0
0
0
0
0
0
0
0
0
0
0
0
0
1.432647324e-10
1.364464898e-12
1.389784497e-14
3.613616645e-15
0
0
0
0
0
0
0
0
0
0
0
0
0
0
0
0
0
0
0
0
0
0
0
0
0
0
0
0
0
0
0
0
0
0
0
0
0
0
0
0
0
0
0
0
0
0
0
0
0
0
0
0
0
0
0
0
3.500419834e-10
1.046116697e-11
8.98962323e-14
2.171775021e-14
2.19476149e-17
0
0
0
0
0
0
0
0
0
0
0
0
0
0
0
0
0
0
0
0
0
0
0
0
0
0
0
0
0
0
0
0
0
0
0
0
0
0
0
0
0
0
0
0
0
0
0
0
0
0
0
0
0
0
0
4.537509377e-10
4.486416073e-11
1.171598482e-12
9.123889776e-15
3.619965266e-15
0
0
0
0
0
0
0
0
0
0
0
0
0
0
0
0
0
0
0
0
0
0
0
0
0
0
0
0
0
0
0
0
0
0
0
0
0
0
0
0
0
0
0
0
0
0
0
0
0
0
0
0
0
0
0
2.258566799e-09
2.219126733e-10
1.110514378e-11
1.825333152e-13
0
1.213873906e-15
0
0
0
0
0
0
0
0
0
0
0
0
0
0
0
0
0
0
0
0
0
0
0
0
0
0
0
0
0
0
0
0
0
0
0
0
0
0
0
0
0
0
0
0
0
0
0
0
0
0
0
0
0
0
8.709472874e-09
7.507195013e-10
6.407423675e-11
2.373081188e-12
3.317621902e-14
1.859877355e-14
6.818775946e-16
0
0
0
0
0
0
0
0
0
0
0
0
0
0
0
0
0
0
0
0
0
0
0
0
0
0
0
0
0
0
0
0
0
0
0
0
0
0
0
0
0
0
0
0
0
0
0
0
0
0
0
0
0
9.518149987e-09
9.263030269e-10
1.955980343e-10
1.309780614e-11
3.762614552e-13
4.647361257e-15
4.261625819e-15
0
0
0
0
0
0
0
0
0
0
0
0
0
0
0
0
0
0
0
0
0
0
0
0
0
0
0
0
0
0
0
0
0
0
0
0
0
0
0
0
0
0
0
0
0
0
0
0
0
0
0
0
0
7.332857893e-09
3.999475135e-10
3.71988808e-10
5.551391223e-11
2.525954586e-12
4.959408707e-14
1.816403334e-14
6.915893462e-16
0
0
0
0
0
0
0
0
0
0
0
0
0
0
0
0
0
0
0
0
0
0
0
0
0
0
0
0
0
0
0
0
0
0
0
0
0
0
0
0
0
0
0
0
0
0
0
0
0
0
0
0
1.30066719e-08
1.356753412e-09
5.22144521e-10
2.214626079e-10
1.33474101e-11
3.699892347e-13
4.539705444e-15
3.133648518e-15
0
0
0
0
0
0
0
0
0
0
0
0
0
0
0
0
0
0
0
0
0
0
0
0
0
0
0
0
0
0
0
0
0
0
0
0
0
0
0
0
0
0
0
0
0
0
0
0
0
0
0
0
7.359151008e-08
8.193239229e-09
1.024628619e-09
7.218712907e-10
5.469265492e-11
1.938788477e-12
3.26022356e-14
1.001303135e-14
1.991488531e-16
0
0
0
0
0
0
0
0
0
0
0
0
0
0
0
0
0
0
0
0
0
0
0
0
0
0
0
0
0
0
0
0
0
0
0
0
0
0
0
0
0
0
0
0
0
0
0
0
0
0
0
9.35172868e-08
1.242782286e-08
1.746664311e-09
1.398618166e-09
1.569177162e-10
7.127593588e-12
1.662640971e-13
3.307390635e-14
1.773152485e-15
0
0
0
0
0
0
0
0
0
0
0
0
0
0
0
0
0
0
0
0
0
0
0
0
0
0
0
0
0
0
0
0
0
0
0
0
0
0
0
0
0
0
0
0
0
0
0
0
0
0
0
8.340344847e-08
1.267295623e-08
1.763586142e-09
1.738021666e-09
3.176450824e-10
1.694917351e-11
5.030347145e-13
1.002844163e-14
4.805941197e-15
4.996776416e-17
0
0
0
0
0
0
0
0
0
0
0
0
0
0
0
0
0
0
0
0
0
0
0
0
0
0
0
0
0
0
0
0
0
0
0
0
0
0
0
0
0
0
0
0
0
0
0
0
0
0
6.914846769e-08
1.128263722e-08
1.821612878e-09
1.931119828e-09
4.253513302e-10
2.438693287e-11
8.597079617e-13
1.22665537e-14
3.918276452e-15
4.88547099e-17
0
0
0
0
0
0
0
0
0
0
0
0
0
0
0
0
0
0
0
0
0
0
0
0
0
0
0
0
0
0
0
0
0
0
0
0
0
0
0
0
0
0
0
0
0
0
0
0
0
0
6.652263802e-08
1.17177756e-08
2.157463232e-09
3.209561092e-09
3.470911711e-10
2.070397221e-11
8.574909729e-13
3.645966693e-14
5.975784703e-15
9.616488052e-17
0
0
0
0
0
0
0
0
0
0
0
0
0
0
0
0
0
0
0
0
0
0
0
0
0
0
0
0
0
0
0
0
0
0
0
0
0
0
0
0
0
0
0
0
0
0
0
0
0
0
6.695119864e-08
1.238471782e-08
2.510558622e-09
5.522838729e-09
3.463806697e-10
1.62595895e-11
6.179051555e-13
1.920309239e-14
3.299731946e-15
4.957980222e-17
0
0
0
0
0
0
0
0
0
0
0
0
0
0
0
0
0
0
0
0
0
0
0
0
0
0
0
0
0
0
0
0
0
0
0
0
0
0
0
0
0
0
0
0
0
0
0
0
0
0
1.098893313e-07
2.009396471e-08
6.181255044e-09
9.221634596e-10
8.105745041e-11
5.088768775e-12
2.415062492e-13
2.091380103e-14
1.182835412e-15
2.462054386e-15
7.323057904e-18
0
0
0
0
0
0
0
0
0
0
0
0
0
0
0
0
0
0
0
0
0
0
0
0
0
0
0
0
0
0
0
0
0
0
0
0
0
0
0
0
0
0
0
0
0
0
0
0
0
1.000317796e-07
5.730878864e-08
5.178746938e-09
3.819231978e-10
2.587566398e-11
1.538237444e-12
7.64809462e-14
6.134839188e-15
9.777765524e-16
2.745324548e-15
1.487714343e-15
0
0
0
0
0
0
0
0
0
0
0
0
0
0
0
0
0
0
0
0
0
0
0
0
0
0
0
0
0
0
0
0
0
0
0
0
0
0
0
0
0
0
0
0
0
0
0
0
0
1.155406687e-08
4.039652616e-09
5.606151904e-10
5.872836082e-11
5.092316009e-12
3.626988037e-13
2.3929069e-14
1.100807413e-15
1.221799992e-16
5.855068908e-16
2.768249227e-15
9.537822905e-16
0
0
0
0
0
0
0
0
0
0
0
0
0
0
0
0
0
0
0
0
0
0
0
0
0
0
0
0
0
0
0
0
0
0
0
0
0
0
0
0
0
0
0
0
0
0
0
0
1.038898591e-09
3.289074029e-10
6.144549586e-11
8.395071508e-12
8.803783289e-13
7.231642977e-14
1.889211474e-15
1.319066442e-16
0
0
5.524633577e-17
2.620277531e-15
8.714083139e-16
0
0
0
0
0
0
0
0
0
0
0
0
0
0
0
0
0
0
0
0
0
0
0
0
0
0
0
0
0
0
0
0
0
0
0
0
0
0
0
0
0
0
0
0
0
0
0
9.91509712e-11
3.290905669e-11
7.234977688e-12
1.137246176e-12
1.347202746e-13
1.449965484e-14
1.590100099e-15
9.091115191e-17
0
0
0
5.811521178e-17
2.754901833e-15
1.012533568e-15
0
0
0
0
0
0
0
0
0
0
0
0
0
0
0
0
0
0
0
0
0
0
0
0
0
0
0
0
0
0
0
0
0
0
0
0
0
0
0
0
0
0
0
0
0
0
9.651091224e-12
3.413593404e-12
8.143836968e-13
1.392988505e-13
1.795136986e-14
8.952278267e-16
0
0
2.274229983e-18
2.556275254e-19
3.102554207e-17
0
1.177645393e-16
3.355478072e-15
1.511132686e-15
0
0
0
0
0
0
0
0
0
0
0
0
0
0
0
0
0
0
0
0
0
0
0
0
0
0
0
0
0
0
0
0
0
0
0
0
0
0
0
0
0
0
0
0
0
8.874325094e-13
3.26072641e-13
7.03222269e-14
1.231804376e-14
1.674067723e-15
2.028224896e-16
3.012054803e-17
3.316630044e-18
2.704608262e-19
0
0
0
0
5.925028891e-17
3.12251438e-15
8.102810019e-16
0
0
0
0
0
0
0
0
0
0
0
0
0
0
0
0
0
0
0
0
0
0
0
0
0
0
0
0
0
0
0
0
0
0
0
0
0
0
0
0
0
0
0
0
6.440580911e-14
2.435026557e-14
6.38285025e-15
1.567524399e-15
2.272214149e-16
4.35819978e-18
1.257102465e-18
0
0
2.327745255e-18
0
0
0
5.299874901e-17
2.281822013e-15
2.859174198e-15
1.740266348e-16
0
0
0
0
0
0
0
0
0
0
0
0
0
0
0
0
0
0
0
0
0
0
0
0
0
0
0
0
0
0
0
0
0
0
0
0
0
0
0
0
0
0
0
5.147283226e-15
2.021203625e-15
5.95649416e-16
0
0
0
0
0
8.468266726e-20
3.626561871e-19
2.835334734e-18
0
0
0
0
3.628594065e-15
4.325930858e-15
7.785868212e-16
0
0
0
0
0
0
0
0
0
0
0
0
0
0
0
0
0
0
0
0
0
0
0
0
0
0
0
0
0
0
0
0
0
0
0
0
0
0
0
0
0
0
5.628502711e-16
2.164253357e-16
3.011647623e-17
7.777536856e-19
3.052878377e-18
7.285048618e-19
5.79320235e-19
0
0
1.857726332e-18
8.083558035e-18
0
0
0
0
1.908273119e-16
4.59147106e-15
5.412183323e-15
1.09802656e-15
0
0
0
0
0
0
0
0
0
0
0
0
0
0
0
0
0
0
0
0
0
0
0
0
0
0
0
0
0
0
0
0
0
0
0
0
0
0
0
0
0
3.440090519e-17
0
2.826190951e-18
1.577149532e-18
1.838451235e-18
7.292596165e-19
5.279885242e-19
0
0
0
0
8.330913251e-18
0
0
0
0
7.94829265e-16
3.818304608e-15
1.062478176e-15
0
0
0
0
0
0
0
0
0
0
0
0
0
0
0
0
0
0
0
0
0
0
0
0
0
0
0
0
0
0
0
0
0
0
0
0
0
0
0
0
0
4.587579895e-18
1.935437004e-18
8.996941548e-19
2.967920996e-19
3.132148946e-19
2.11231411e-19
2.41922034e-19
2.79799369e-19
0
0
0
1.143769635e-17
5.06516836e-18
0
0
0
1.759057174e-17
4.04193681e-15
5.08619834e-15
1.529773327e-15
0
0
0
0
0
0
0
0
0
0
0
0
0
0
0
0
0
0
0
0
0
0
0
0
0
0
0
0
0
0
0
0
0
0
0
0
0
0
0
0
1.202876714e-18
7.196594974e-19
4.77340818e-19
2.541489019e-19
3.672185424e-19
4.125397638e-19
6.633339747e-19
1.096671572e-18
2.104670849e-18
1.254836443e-18
1.039707628e-17
8.219126178e-18
9.998520195e-18
0
0
0
0
2.140838793e-16
5.347079884e-15
6.578758654e-15
2.198363103e-15
0
0
0
0
0
0
0
0
0
0
0
0
0
0
0
0
0
0
0
0
0
0
0
0
0
0
0
0
0
0
0
0
0
0
0
0
0
0
0
4.115042935e-19
3.801954338e-19
3.789552133e-19
4.190202788e-19
3.057111204e-19
6.413530943e-19
1.102731753e-18
1.308062688e-18
1.552129698e-18
3.831598618e-18
8.021522387e-18
2.914472955e-18
1.019320831e-17
0
0
1.439049074e-17
3.120463037e-17
8.00306436e-16
5.388406583e-15
7.3572671e-15
4.058993629e-15
1.180217705e-15
0
0
0
0
0
0
0
0
0
0
0
0
0
0
0
0
0
0
0
0
0
0
0
0
0
0
0
0
0
0
0
0
0
0
0
0
0
0
2.884361963e-19
3.209040868e-19
3.870372775e-19
4.694286478e-19
4.347007784e-19
9.176293293e-19
1.725304601e-18
2.118131802e-18
1.903376787e-18
3.042709323e-18
3.249922125e-18
1.329249752e-17
1.665455e-17
1.026280171e-17
0
0
0
0
4.32092123e-16
6.557552745e-15
8.643088944e-15
4.612872887e-15
1.08288647e-15
0
0
0
0
0
0
0
0
0
0
0
0
0
0
0
0
0
0
0
0
0
0
0
0
0
0
0
0
0
0
0
0
0
0
0
0
0
3.614964827e-19
4.793536009e-19
6.281352204e-19
8.553665574e-19
1.102660493e-18
1.794203535e-18
2.705118692e-18
3.871363923e-18
4.419701676e-18
3.962672821e-18
3.429331034e-18
9.588833877e-18
0
9.233826456e-18
0
0
5.524759134e-17
3.382759207e-16
1.534162563e-15
6.352948719e-15
9.613618876e-15
9.875001556e-15
4.248929961e-15
1.295043286e-16
0
0
0
0
0
0
0
0
0
0
0
0
0
0
0
0
0
0
0
0
0
0
0
0
0
0
0
0
0
0
0
0
0
0
0
0
6.260363753e-19
7.921583152e-19
1.17975856e-18
1.56727704e-18
2.314927821e-18
3.158153359e-18
4.351555113e-18
5.912466387e-18
6.889791811e-18
6.443247516e-18
8.200298643e-18
3.979576487e-18
6.069481301e-19
9.128420291e-18
0
0
0
9.455771486e-18
0
4.153361155e-16
7.525483626e-15
1.03085177e-14
6.339298247e-15
2.265765069e-15
0
0
0
0
0
0
0
0
0
0
0
0
0
0
0
0
0
0
0
0
0
0
0
0
0
0
0
0
0
0
0
0
0
0
0
0
1.366135031e-18
1.733253861e-18
1.980019581e-18
2.372423601e-18
3.075077426e-18
3.993787873e-18
5.228803466e-18
7.00014031e-18
8.188208654e-18
8.361275305e-18
1.119354212e-17
1.420276267e-18
1.524641463e-18
1.449210639e-18
2.896539481e-18
0
0
2.446656105e-17
3.291009063e-17
4.996096506e-16
4.551775172e-15
9.153615398e-15
1.071455984e-14
5.918634076e-15
1.705687644e-15
0
0
0
0
0
0
0
0
0
0
0
0
0
0
0
0
0
0
0
0
0
0
0
0
0
0
0
0
0
0
0
0
0
0
0
1.886789762e-18
1.996069574e-18
2.114936427e-18
2.272509795e-18
2.822593718e-18
3.306523686e-18
4.166178303e-18
5.579050757e-18
6.452417639e-18
7.320614484e-18
9.439462157e-18
1.532714739e-18
4.343277094e-18
0
5.613598293e-18
0
0
2.801937899e-17
3.923530737e-17
0
2.416088347e-16
8.49995522e-15
1.247375149e-14
9.596125189e-15
4.913157589e-15
4.562154161e-16
0
0
0
0
0
0
0
0
0
0
0
0
0
0
0
0
0
0
0
0
0
0
0
0
0
0
0
0
0
0
0
0
0
0
1.568803495e-18
1.442477055e-18
1.296962091e-18
1.142500576e-18
1.346522168e-18
1.416841454e-18
1.853623087e-18
2.832187956e-18
3.276723901e-18
3.728475187e-18
5.071144685e-18
5.108597472e-20
4.616501792e-18
0
8.145580207e-18
0
0
0
3.606718489e-17
2.829595784e-18
0
0
9.703886168e-15
1.27415313e-14
8.224346389e-15
3.272530099e-15
1.089120599e-17
0
0
0
0
0
0
0
0
0
0
0
0
0
0
0
0
0
0
0
0
0
0
0
0
0
0
0
0
0
0
0
0
0
9.556234489e-19
7.266262719e-19
4.520736e-19
1.670954697e-19
3.399708564e-19
4.354545084e-20
1.690801874e-19
5.834989636e-19
9.249345926e-19
1.306805965e-18
2.858533579e-18
0
9.446455187e-20
0
7.877244999e-18
0
0
0
2.833740511e-17
3.817709942e-17
0
0
9.802851632e-15
1.562917297e-14
1.727781161e-14
8.240656762e-15
2.18704638e-15
0
0
0
0
0
0
0
0
0
0
0
0
0
0
0
0
0
0
0
0
0
0
0
0
0
0
0
0
0
0
0
0
0
2.939267941e-19
1.666176319e-19
6.252340263e-20
0
1.817742276e-20
0
0
5.133278293e-20
9.848959119e-20
2.401980086e-19
1.795953371e-18
0
0
0
0
0
0
0
2.997761086e-17
3.963313529e-17
0
0
3.540978046e-16
1.107169386e-14
1.491057894e-14
1.025345394e-14
4.855994564e-15
4.459617778e-16
0
0
0
0
0
0
0
0
0
0
0
0
0
0
0
0
0
0
0
0
0
0
0
0
0
0
0
0
0
0
0
0
2.790143695e-20
0
0
2.044074413e-19
5.548127673e-20
0
4.58475584e-22
4.446152915e-20
1.193099537e-20
0
9.742488186e-19
0
0
0
0
0
0
0
9.153226852e-18
4.229773707e-17
3.851088699e-17
0
0
1.037680342e-14
1.605056702e-14
1.604181315e-14
9.069703185e-15
3.099934042e-15
8.790640843e-18
0
0
0
0
0
0
0
0
0
0
0
0
0
0
0
0
0
0
0
0
0
0
0
0
0
0
0
0
0
0
0
0
0
0
1.752606589e-20
0
0
1.22467473e-22
3.652468721e-20
5.923960705e-23
0
3.218460153e-19
0
0
0
0
2.295619999e-18
0
8.130324973e-19
0
4.070480169e-17
3.98149361e-17
0
1.532024022e-16
6.127349503e-16
1.132020174e-14
1.504833076e-14
1.066547114e-14
5.327994764e-15
8.587144444e-16
0
0
0
0
0
0
0
0
0
0
0
0
0
0
0
0
0
0
0
0
0
0
0
0
0
0
0
0
0
0
0
0
0
6.844400653e-20
1.357833547e-20
0
0
0
3.931498533e-20
0
0
1.179080444e-19
0
0
0
0
1.301520494e-18
0
0
0
0
4.256244455e-17
4.170600367e-17
0
0
1.048969741e-14
1.617881192e-14
1.624729198e-14
9.401189096e-15
3.456448129e-15
2.274317665e-17
0
0
0
0
0
0
0
0
0
0
0
0
0
0
0
0
0
0
0
0
0
0
0
0
0
0
0
0
0
0
0
5.881802327e-20
3.260668913e-20
0
0
4.531959492e-22
4.423641864e-20
5.367715331e-20
8.410116592e-23
0
7.760603448e-20
0
0
5.63311736e-19
0
0
0
0
0
7.967186715e-18
4.247757057e-17
4.24902188e-17
0
0
6.018630121e-15
1.214579984e-14
1.495161337e-14
1.040344249e-14
5.142933308e-15
8.293714501e-16
0
0
0
0
0
0
0
0
0
0
0
0
0
0
0
0
0
0
0
0
0
0
0
0
0
0
0
0
0
0
4.92211318e-20
3.096347283e-20
0
0
0
2.186582171e-21
4.153641477e-20
4.279879349e-21
0
0
7.556647185e-20
0
0
1.026191236e-18
0
0
0
0
7.750834757e-19
7.91046141e-18
4.039969062e-17
4.489716217e-17
4.039377318e-17
0
0
1.011891546e-14
1.519670864e-14
1.484723181e-14
8.085438487e-15
2.679618686e-15
1.53796294e-17
0
0
0
0
0
0
0
0
0
0
0
0
0
0
0
0
0
0
0
0
0
0
0
0
0
0
0
0
0
9.928575926e-21
0
0
0
1.299075599e-21
5.147394948e-21
4.256307332e-20
2.761214656e-21
0
0
7.499740966e-20
0
0
8.728718984e-19
0
0
0
0
1.381036645e-18
0
7.910638367e-18
4.226078027e-17
3.949860249e-17
0
0
7.511201326e-15
1.294673366e-14
1.486852699e-14
1.004326328e-14
4.873467009e-15
8.603418985e-16
0
0
0
0
0
0
0
0
0
0
0
0
0
0
0
0
0
0
0
0
0
0
0
0
0
0
0
0
0
0
0
0
0
1.23928097e-21
2.970386039e-20
0
3.001102109e-21
0
0
7.44906089e-20
0
8.294300958e-20
8.608972607e-19
0
0
0
0
0
0
8.347851162e-18
4.114085287e-17
3.979698512e-17
0
2.556939423e-16
3.702417954e-16
1.144067537e-14
1.7720174e-14
1.901091644e-14
1.033864153e-14
3.667966176e-15
4.393257982e-17
0
0
0
0
0
0
0
0
0
0
0
0
0
0
0
0
0
0
0
0
0
0
0
0
0
0
0
0
0
0
0
6.264671704e-22
5.142314162e-21
5.044715435e-20
1.408220391e-20
0
0
0
5.512167868e-20
0
0
8.305441795e-19
0
0
5.546447836e-18
0
2.6354775e-17
7.525496818e-17
9.549667435e-17
5.699228057e-17
4.919736718e-17
3.99740176e-17
0
0
1.016466934e-14
1.65802713e-14
1.813715467e-14
1.201868794e-14
5.933412347e-15
1.301564378e-15
0
0
0
0
0
0
0
0
0
0
0
0
0
0
0
0
0
0
0
0
0
0
0
0
0
0
0
0
0
0
0
1.335325206e-21
2.874479586e-20
1.584566825e-20
1.739541983e-20
6.401432241e-21
0
2.638997137e-19
1.573819038e-19
0
0
1.866550906e-18
0
1.700382038e-17
9.142029145e-17
1.376210884e-16
2.095821537e-16
2.980746169e-16
4.129368303e-16
4.30178468e-16
3.300099762e-16
1.976537446e-16
0
4.811290567e-16
5.506963314e-16
1.142887588e-14
1.591794016e-14
1.26667835e-14
7.619463441e-15
2.597967377e-15
2.12130704e-17
0
0
0
0
0
0
0
0
0
0
0
0
0
0
0
0
0
0
0
0
0
0
0
0
0
0
0
8.675346903e-22
3.933522637e-21
2.720462592e-21
4.404350257e-21
0
1.241075676e-20
3.031702781e-20
2.763097883e-19
1.260665854e-18
4.885748667e-18
1.03907013e-17
1.726280879e-17
3.227153429e-17
4.988280374e-17
6.10937829e-17
1.210188061e-16
2.387510931e-16
3.27069191e-16
4.292990933e-16
5.284057982e-16
6.79214778e-16
7.056504925e-16
5.80095225e-16
3.968151443e-16
1.736162492e-16
3.593776489e-16
0
1.036950038e-14
1.609107413e-14
1.657605814e-14
1.047748204e-14
4.898294248e-15
8.943737092e-16
0
0
0
0
0
0
0
0
0
0
0
0
0
0
0
0
0
0
0
0
0
0
0
0
0
0
0
9.288393912e-21
7.568355375e-21
1.251671089e-21
2.9870875e-20
1.03069888e-19
3.456635156e-19
8.430981723e-19
1.948473676e-18
4.534122954e-18
1.247131811e-17
2.273259642e-17
3.563460873e-17
5.974010723e-17
8.315154974e-17
9.981367449e-17
1.622192453e-16
2.759938137e-16
3.526076332e-16
4.425737334e-16
5.37666011e-16
6.322670603e-16
6.260492493e-16
4.909620372e-16
3.102055646e-16
1.248979523e-16
0
0
7.075351968e-15
1.313424715e-14
1.617415039e-14
1.234751742e-14
7.528204015e-15
2.761473428e-15
2.966876152e-17
0
0
0
0
0
0
0
0
0
0
0
0
0
0
0
0
0
0
0
0
0
0
0
0
0
0
9.737744695e-21
1.149096832e-21
3.743127663e-21
8.984857887e-21
8.267300086e-21
8.054176159e-20
2.895228171e-19
9.533170932e-19
3.28212546e-18
1.076330576e-17
1.935924797e-17
2.879693067e-17
4.689151615e-17
5.994462881e-17
6.132582634e-17
9.551123523e-17
1.700073568e-16
1.983452342e-16
2.340003961e-16
2.767005833e-16
3.335748724e-16
3.405303648e-16
2.688666105e-16
1.253348011e-16
5.214222775e-17
0
3.346571365e-16
4.286310629e-16
1.188918162e-14
1.815944779e-14
1.862485627e-14
1.218346632e-14
6.034559357e-15
1.395048091e-15
0
0
0
0
0
0
0
0
0
0
0
0
0
0
0
0
0
0
0
0
0
0
0
0
0
0
4.435343502e-21
1.172536722e-20
5.276861733e-21
6.071054624e-21
1.079083907e-20
1.06638703e-20
0
0
7.718621084e-19
2.971827564e-18
5.54248263e-18
7.427529858e-18
1.320404498e-17
1.245420439e-17
3.262814461e-18
7.500381175e-18
4.572802343e-17
4.694949651e-17
3.345326646e-17
4.13146204e-17
6.891129654e-17
9.159627193e-17
7.383475953e-17
5.267194263e-17
4.481854126e-17
3.977319292e-17
2.306517815e-16
0
1.078384357e-14
1.764374948e-14
1.960341943e-14
1.429274339e-14
8.214562889e-15
2.820764784e-15
3.049063685e-17
0
0
0
0
0
0
0
0
0
0
0
0
0
0
0
0
0
0
0
0
0
0
0
0
0
2.486580626e-20
3.025091932e-21
3.320213187e-21
5.700216525e-21
1.248308591e-20
8.035200875e-21
0
0
1.297091032e-19
2.547315819e-19
5.412659843e-19
7.62195369e-19
2.565101497e-18
2.23056085e-18
1.270513854e-18
0
1.277743532e-17
1.136407642e-17
0
0
7.657283985e-18
1.173758982e-17
1.196559207e-17
4.237779774e-17
4.717532945e-17