/*--------------------------------*- C++ -*----------------------------------*\
  =========                 |
  \\      /  F ield         | OpenFOAM: The Open Source CFD Toolbox
   \\    /   O peration     | Website:  https://openfoam.org
    \\  /    A nd           | Version:  10
     \\/     M anipulation  |
\*---------------------------------------------------------------------------*/
FoamFile
{
    format      ascii;
    class       volScalarField;
    location    "0.02498436188";
    object      CH2(S);
}
// * * * * * * * * * * * * * * * * * * * * * * * * * * * * * * * * * * * * * //

dimensions      [0 0 0 0 0 0 0];

internalField   nonuniform List<scalar> 
5170
(
0
0
0
0
0
0
0
0
0
0
0
0
0
0
0
0
0
0
0
0
0
0
0
0
0
0
0
0
0
0
0
0
0
0
0
0
0
0
0
0
0
0
0
0
0
0
0
0
0
0
0
0
0
0
0
0
0
0
0
0
0
0
0
0
0
0
0
0
0
0
0
0
0
0
0
0
0
0
0
0
0
0
0
0
0
0
0
0
0
0
0
0
0
0
0
0
0
0
0
0
1.191479407e-20
1.569545508e-22
1.52774076e-22
1.716180437e-22
1.62667294e-22
1.591863187e-20
0
0
0
0
2.720082862e-21
1.453362596e-21
8.125346907e-23
0
7.045796484e-23
1.702906355e-21
2.465616668e-21
0
9.637556967e-22
2.859513289e-20
1.583159946e-18
0
4.949233025e-21
0
8.770822171e-19
0
0
0
1.190545936e-16
0
0
0
0
4.939522772e-15
0
0
9.560887256e-15
1.163567192e-14
0
0
0
0
0
0
8.267207337e-13
6.455920073e-13
2.956137955e-11
0
0
0
7.420254716e-13
1.828728265e-11
0
0
0
2.544339771e-14
8.939265793e-13
0
3.694137446e-14
6.27581915e-13
3.70118578e-14
0
0
6.106006312e-14
4.353897091e-12
1.106065366e-12
0
0
1.82633616e-12
9.177672662e-12
4.545404732e-12
9.019038755e-13
9.033884559e-13
4.596946671e-12
6.753808989e-12
4.810780695e-12
3.881919221e-12
3.809059379e-12
5.576115808e-12
7.372276943e-12
3.991035207e-12
7.628172223e-12
7.58090703e-12
5.694864674e-12
1.093460097e-11
5.254726573e-12
6.174565398e-12
6.392204297e-12
6.691041135e-12
5.427056739e-12
1.057675066e-11
6.042951338e-12
5.109734092e-12
9.691771357e-12
4.665955515e-12
1.705969022e-10
2.207795284e-10
3.410613401e-11
7.876705381e-12
5.259020429e-13
0
0
0
0
2.948394495e-12
0
0
7.881707609e-14
1.274011472e-12
3.799021262e-11
0
0
5.996135496e-14
1.781324311e-12
3.248614233e-11
0
1.08937538e-14
3.288916108e-13
6.082953147e-12
1.120168356e-10
0
6.682403835e-14
8.919408119e-13
1.272810446e-11
1.822874317e-10
4.218099429e-15
1.31992433e-13
9.640164392e-13
1.504803624e-11
1.638474964e-10
1.986234876e-14
2.086683871e-13
1.030318113e-12
1.317587695e-11
1.109509473e-10
3.006186224e-14
2.059953384e-13
1.000545755e-12
1.054925904e-11
7.632758487e-11
1.913418095e-14
4.75053784e-14
1.238483937e-12
1.23638097e-11
9.210092854e-11
2.665932172e-14
1.381378388e-13
1.922998196e-12
1.754854788e-11
1.220812854e-10
8.338943183e-14
3.843472285e-13
2.953370783e-12
2.34256405e-11
1.46539914e-10
6.547551006e-14
4.162137785e-13
3.303991756e-12
2.156646219e-11
1.129662223e-10
0
4.586325598e-13
3.078154379e-12
1.687786277e-11
7.712195132e-11
9.979126099e-14
6.178783799e-13
3.807345072e-12
2.075707784e-11
1.006799118e-10
2.212809447e-13
9.315363737e-13
5.085424165e-12
2.568732168e-11
1.167037502e-10
3.582029704e-13
1.228947274e-12
5.810052377e-12
2.62413193e-11
1.080432488e-10
5.186187777e-13
1.489875434e-12
5.829075997e-12
2.289258e-11
8.289879224e-11
8.03836632e-13
1.996703696e-12
6.889522325e-12
2.352036248e-11
7.879326619e-11
1.416440752e-12
3.578438442e-12
1.408928847e-11
5.265949845e-11
2.024807146e-10
2.694623449e-12
6.154634008e-12
2.010690105e-11
6.851457644e-11
2.318395746e-10
3.310623715e-12
6.372715443e-12
1.696159336e-11
4.733678045e-11
1.289424991e-10
3.08000838e-12
4.786475464e-12
9.813402528e-12
2.15825975e-11
4.717493911e-11
1.667472899e-12
2.18866872e-12
3.859118474e-12
6.820825358e-12
1.244364437e-11
6.042752943e-13
7.474192771e-13
1.086921803e-12
1.638412623e-12
2.573455662e-12
1.672095818e-13
1.873568807e-13
2.418958229e-13
3.254204669e-13
4.443545752e-13
3.531434565e-14
3.77075202e-14
4.485488531e-14
5.344983418e-14
6.323661762e-14
6.976643012e-15
7.402348442e-15
8.123701533e-15
8.606638792e-15
9.34866228e-15
1.310337999e-15
1.338165138e-15
1.372684695e-15
1.385813984e-15
1.398918123e-15
2.325262397e-16
2.334807053e-16
2.302090177e-16
2.249459512e-16
2.058086373e-16
4.14326397e-17
4.183894663e-17
4.166928085e-17
4.15866586e-17
3.882180228e-17
1.981010823e-18
2.477776627e-18
3.834287101e-18
6.697260015e-18
7.659379348e-18
1.130621971e-18
1.171706802e-18
1.27096197e-18
1.432312391e-18
1.490668855e-18
4.406986306e-19
4.384649751e-19
4.311248223e-19
4.295767144e-19
4.249138434e-19
2.244244469e-19
2.254756574e-19
2.277154207e-19
2.315813229e-19
2.36947317e-19
2.042628827e-19
2.072196196e-19
2.135227633e-19
2.224755029e-19
2.33364799e-19
2.723569929e-19
2.766060429e-19
2.856943255e-19
2.98577916e-19
3.140672896e-19
3.650865472e-19
3.716559082e-19
3.85465483e-19
4.111949263e-19
4.474990781e-19
4.056189138e-19
4.158337062e-19
4.380386069e-19
4.709040421e-19
5.196850389e-19
3.581553031e-19
3.662534967e-19
3.840442107e-19
4.115785479e-19
4.509538331e-19
2.302978272e-19
2.36259089e-19
2.448115709e-19
2.533247534e-19
2.549885299e-19
5.919902937e-20
5.801841483e-20
5.512031718e-20
5.02320099e-20
4.157193446e-20
0
0
0
0
0
0
9.31532827e-21
1.330977495e-20
1.338563486e-20
1.305893914e-20
8.270332504e-21
8.560297657e-21
8.705182018e-21
8.585017375e-21
6.803871001e-21
4.447645357e-23
0
0
0
0
7.072430814e-22
0
0
0
0
0
0
0
0
0
2.948778876e-20
2.523058154e-20
1.187597679e-20
8.369710198e-21
7.718021996e-21
4.774861669e-22
3.544188211e-22
1.347138742e-23
0
0
0
0
0
0
0
0
0
0
0
0
0
0
0
0
0
0
0
0
0
0
0
0
0
0
0
2.186069572e-20
2.156390167e-20
2.126550947e-20
2.137835962e-20
2.213938083e-20
3.872894933e-20
3.879317759e-20
3.902661586e-20
3.937465036e-20
3.81118077e-20
0
0
0
0
0
0
0
0
0
0
0
0
0
0
0
1.594957522e-19
1.467648298e-19
1.213154105e-19
8.854969116e-20
5.469407378e-20
1.704263829e-18
1.682609229e-18
1.638134828e-18
1.577527884e-18
1.511533837e-18
4.564541369e-18
4.469494745e-18
4.260403392e-18
3.940167608e-18
3.516864044e-18
3.115272836e-18
3.107790495e-18
3.109353512e-18
3.192261716e-18
3.446628494e-18
4.654701093e-18
4.569747599e-18
4.391863927e-18
4.138159386e-18
3.801642225e-18
4.975250792e-18
4.869680353e-18
4.648653838e-18
4.33555331e-18
3.933895817e-18
8.018178167e-18
7.971931646e-18
7.880826917e-18
7.76355257e-18
7.615825589e-18
2.419124169e-17
2.398841272e-17
2.356601598e-17
2.296303288e-17
2.220150247e-17
4.370033019e-17
4.321239461e-17
4.217675961e-17
4.064725358e-17
3.865025395e-17
5.591214649e-17
5.52456777e-17
5.384037236e-17
5.179555016e-17
4.916306216e-17
8.168721155e-17
8.135609258e-17
8.072951621e-17
7.996980757e-17
7.922157272e-17
2.772684296e-11
4.328905041e-10
2.29776602e-10
8.907371084e-10
1.174753205e-09
8.517577382e-10
4.781851703e-10
3.082583662e-10
4.039372037e-10
5.00399618e-10
5.547869019e-10
3.655159964e-10
2.278685548e-10
3.285420483e-10
3.608564233e-10
3.053409892e-10
2.042166341e-10
2.798831276e-10
5.541445327e-10
5.851692297e-10
2.679997311e-10
8.261115046e-11
1.918085969e-11
3.589684691e-12
5.677656954e-13
7.346264637e-14
1.0121395e-14
1.423594624e-15
1.555876277e-16
3.317373123e-17
6.316914277e-18
1.434976231e-18
4.217024423e-19
2.417243381e-19
2.408356238e-19
3.248632037e-19
4.776992688e-19
5.60762999e-19
4.827123655e-19
2.553096724e-19
2.903832826e-20
0
1.033571149e-20
3.995470495e-21
0
0
0
7.87299076e-21
0
0
0
0
0
0
2.262830029e-20
2.907101316e-20
0
0
0
3.442568231e-20
1.469386264e-18
3.186188901e-18
3.726819704e-18
3.488787516e-18
3.590921622e-18
7.466013946e-18
2.157113132e-17
3.691977387e-17
4.68467014e-17
7.857956447e-17
5.762261527e-11
1.280733875e-10
1.903448121e-11
1.138987204e-10
5.765369995e-12
2.430506633e-09
4.043925055e-08
2.3256295e-09
7.737425975e-11
3.161799519e-11
9.216741218e-10
7.366113129e-09
3.363181978e-09
3.144020009e-10
1.313019728e-10
4.381543433e-09
5.892007372e-08
7.078747568e-07
5.303939746e-08
2.85700171e-09
5.04631337e-09
5.534982164e-08
5.186077176e-07
5.417858291e-08
3.899934845e-09
3.168594067e-09
2.697686673e-08
1.85990525e-07
2.698577197e-08
2.644844298e-09
1.581438144e-09
1.101941809e-08
6.334559809e-08
1.246823377e-08
1.695523041e-09
1.01440564e-09
7.565791439e-09
5.180695206e-08
2.506149539e-07
3.114618147e-08
1.42276248e-09
1.253336048e-08
9.459516664e-08
6.890254112e-07
9.711211123e-08
1.642924344e-09
1.232352487e-08
8.220582363e-08
4.872216889e-07
8.438308176e-08
1.741613902e-09
9.297136915e-09
5.516576153e-08
2.966600767e-07
5.759322868e-08
1.02255454e-09
6.230550439e-09
3.41130951e-08
1.757170824e-07
9.298841173e-08
6.066710132e-10
5.558957257e-09
3.01844173e-08
1.595322092e-07
5.21980775e-07
9.517808819e-10
6.237472009e-09
2.907105801e-08
1.487296424e-07
5.775179107e-07
9.35199337e-10
5.352181444e-09
2.474941769e-08
1.189352306e-07
4.594340134e-07
7.899208184e-10
3.961219914e-09
2.057560813e-08
9.156619783e-08
3.45968296e-07
4.84084243e-10
2.314118542e-09
1.602458005e-08
7.304210599e-08
2.728197819e-07
7.2402569e-10
3.720126608e-09
1.785448559e-08
7.813204728e-08
2.927195524e-07
1.372715526e-09
6.868282643e-09
3.191729724e-08
1.415279081e-07
5.480734925e-07
1.464064613e-09
7.322400779e-09
3.512034999e-08
1.612161394e-07
5.898893282e-07
5.775140951e-10
2.094742228e-09
7.191567357e-09
2.302348783e-08
5.282587778e-08
1.548731052e-10
4.12085408e-10
1.010779125e-09
2.301796508e-09
3.90712215e-09
3.249072168e-11
6.856975405e-11
1.28541623e-10
2.168450132e-10
2.855288291e-10
5.600903525e-12
9.905137266e-12
1.524259564e-11
2.057353821e-11
2.221014492e-11
8.562405446e-13
1.259786426e-12
1.67182388e-12
1.934387324e-12
1.823818864e-12
9.528125936e-14
1.251748105e-13
1.453552406e-13
1.476987789e-13
1.260070119e-13
1.190030032e-14
1.37441598e-14
1.437077612e-14
1.318200604e-14
1.045589142e-14
1.530688429e-15
1.610962354e-15
1.661545598e-15
1.247409787e-15
9.297417101e-16
1.21861863e-17
1.816899411e-16
1.863880265e-16
1.170964865e-16
0
2.170866648e-17
9.596700558e-18
1.309694147e-17
1.547897481e-17
4.614365089e-18
5.284649601e-18
3.322427882e-18
1.609888105e-18
2.60360942e-18
1.782538504e-18
1.38060496e-18
1.072673195e-18
7.326070516e-19
6.848872162e-19
5.697385902e-19
4.209588496e-19
3.801687895e-19
3.554116297e-19
3.283837934e-19
3.035337796e-19
2.499047466e-19
2.468299894e-19
2.481920025e-19
2.628173555e-19
2.946772581e-19
2.499651256e-19
2.640200888e-19
2.79197695e-19
2.864957759e-19
4.380879516e-19
3.384167581e-19
3.791803657e-19
4.754220642e-19
6.347297818e-19
9.189311673e-19
5.192383254e-19
6.179744229e-19
7.671817395e-19
9.729315706e-19
1.332391574e-18
6.198462042e-19
7.371235732e-19
8.805353256e-19
1.016663883e-18
1.213352821e-18
5.291596668e-19
5.929017352e-19
6.312537746e-19
6.705820189e-19
7.62648398e-19
2.532137247e-19
2.401979727e-19
2.193885794e-19
2.522086853e-19
3.484658068e-19
0
0
0
5.622218813e-20
5.854716568e-20
0
5.8423198e-21
1.543355703e-20
9.98905427e-21
6.88063166e-22
8.202659623e-21
9.245343508e-21
6.864746786e-21
0
0
0
0
0
0
0
0
0
0
0
0
0
0
0
0
1.085841863e-20
0
0
1.761309913e-20
2.014066071e-20
7.281865326e-21
6.987930712e-21
3.67146103e-21
3.411781202e-21
4.717999295e-22
0
0
0
1.99142939e-21
3.589378032e-20
0
0
0
0
0
0
0
0
0
0
0
0
0
0
0
0
0
0
0
0
0
0
0
8.213079354e-22
3.176473787e-21
9.019288656e-21
2.317003736e-20
2.578292579e-20
2.642508817e-20
0
0
0
0
0
0
0
0
0
0
0
0
0
0
0
0
0
0
0
0
0
0
0
0
5.627138692e-21
9.814446621e-20
2.234410361e-19
1.38365475e-18
1.211717597e-18
1.044559171e-18
7.964476886e-19
6.017503405e-19
2.655016244e-18
1.818459773e-18
1.112015361e-18
7.437219687e-19
8.229768563e-19
4.058796145e-18
3.42900613e-18
2.053285523e-18
9.946860902e-19
4.476897965e-19
3.045896542e-18
2.219977389e-18
1.408535348e-18
7.591324391e-19
4.070198957e-19
3.128240908e-18
2.427722053e-18
1.919648467e-18
1.658420039e-18
1.653308561e-18
7.274545609e-18
6.945708387e-18
6.597595257e-18
5.967725377e-18
5.623037709e-18
2.039959923e-17
1.841887316e-17
1.575771214e-17
1.290739914e-17
9.984476495e-18
3.376826342e-17
2.851705649e-17
2.244950922e-17
1.668171885e-17
1.098550524e-17
4.271071088e-17
3.587960649e-17
2.902030113e-17
2.314343317e-17
1.910187297e-17
7.699989631e-17
7.499977338e-17
7.456269015e-17
7.563159033e-17
7.6722893e-17
1.409908214e-14
2.117565547e-16
0
0
0
0
0
0
0
0
0
0
0
0
0
0
0
0
0
0
0
0
0
0
0
0
0
0
0
0
0
0
0
0
0
0
0
0
0
0
0
0
0
0
0
0
0
0
0
0
0
0
0
0
0
0
0
0
0
0
1.372362929e-13
2.138988184e-14
0
0
0
0
0
0
0
0
0
0
0
0
0
0
0
0
0
0
0
0
0
0
0
0
0
0
0
0
0
0
0
0
0
0
0
0
0
0
0
0
0
0
0
0
0
0
0
0
0
0
0
0
0
0
0
0
0
0
8.818916088e-13
0
0
0
0
0
0
0
0
0
0
0
0
0
0
0
0
0
0
0
0
0
0
0
0
0
0
0
0
0
0
0
0
0
0
0
0
0
0
0
0
0
0
0
0
0
0
0
0
0
0
0
0
0
0
0
0
0
0
0
4.408720422e-11
1.652261376e-13
1.327203575e-14
0
0
0
0
0
0
0
0
0
0
0
0
0
0
0
0
0
0
0
0
0
0
0
0
0
0
0
0
0
0
0
0
0
0
0
0
0
0
0
0
0
0
0
0
0
0
0
0
0
0
0
0
0
0
0
0
0
1.43209573e-10
1.363358393e-12
1.387894515e-14
3.589515437e-15
0
0
0
0
0
0
0
0
0
0
0
0
0
0
0
0
0
0
0
0
0
0
0
0
0
0
0
0
0
0
0
0
0
0
0
0
0
0
0
0
0
0
0
0
0
0
0
0
0
0
0
0
0
0
0
0
3.493921951e-10
1.044467048e-11
8.978944299e-14
2.166319932e-14
2.711498661e-17
0
0
0
0
0
0
0
0
0
0
0
0
0
0
0
0
0
0
0
0
0
0
0
0
0
0
0
0
0
0
0
0
0
0
0
0
0
0
0
0
0
0
0
0
0
0
0
0
0
0
0
0
0
0
0
4.532654875e-10
4.475395864e-11
1.169290248e-12
9.113085367e-15
3.592513531e-15
0
0
0
0
0
0
0
0
0
0
0
0
0
0
0
0
0
0
0
0
0
0
0
0
0
0
0
0
0
0
0
0
0
0
0
0
0
0
0
0
0
0
0
0
0
0
0
0
0
0
0
0
0
0
0
2.293008603e-09
2.22797887e-10
1.109547162e-11
1.820146235e-13
0
1.195192956e-15
0
0
0
0
0
0
0
0
0
0
0
0
0
0
0
0
0
0
0
0
0
0
0
0
0
0
0
0
0
0
0
0
0
0
0
0
0
0
0
0
0
0
0
0
0
0
0
0
0
0
0
0
0
0
8.638340715e-09
7.455810478e-10
6.380929625e-11
2.365341942e-12
3.302854607e-14
1.836515309e-14
6.888225987e-16
0
0
0
0
0
0
0
0
0
0
0
0
0
0
0
0
0
0
0
0
0
0
0
0
0
0
0
0
0
0
0
0
0
0
0
0
0
0
0
0
0
0
0
0
0
0
0
0
0
0
0
0
0
9.57540764e-09
9.308519514e-10
1.947247795e-10
1.304629583e-11
3.751789098e-13
4.641403228e-15
4.233204796e-15
0
0
0
0
0
0
0
0
0
0
0
0
0
0
0
0
0
0
0
0
0
0
0
0
0
0
0
0
0
0
0
0
0
0
0
0
0
0
0
0
0
0
0
0
0
0
0
0
0
0
0
0
0
7.361205465e-09
4.152101838e-10
3.724839434e-10
5.542062822e-11
2.522406155e-12
4.96914325e-14
1.804716373e-14
7.027908428e-16
0
0
0
0
0
0
0
0
0
0
0
0
0
0
0
0
0
0
0
0
0
0
0
0
0
0
0
0
0
0
0
0
0
0
0
0
0
0
0
0
0
0
0
0
0
0
0
0
0
0
0
0
1.326486258e-08
1.376514647e-09
5.191506983e-10
2.20390971e-10
1.333441889e-11
3.715247746e-13
4.571237284e-15
3.115378302e-15
0
0
0
0
0
0
0
0
0
0
0
0
0
0
0
0
0
0
0
0
0
0
0
0
0
0
0
0
0
0
0
0
0
0
0
0
0
0
0
0
0
0
0
0
0
0
0
0
0
0
0
0
7.3640455e-08
8.206769489e-09
1.022201097e-09
7.166897864e-10
5.472419881e-11
1.950876751e-12
3.29870644e-14
9.942502196e-15
2.093121483e-16
0
0
0
0
0
0
0
0
0
0
0
0
0
0
0
0
0
0
0
0
0
0
0
0
0
0
0
0
0
0
0
0
0
0
0
0
0
0
0
0
0
0
0
0
0
0
0
0
0
0
0
9.356732852e-08
1.242953309e-08
1.732120239e-09
1.378684644e-09
1.574053172e-10
7.208954362e-12
1.693776448e-13
3.35557465e-14
1.849785317e-15
0
0
0
0
0
0
0
0
0
0
0
0
0
0
0
0
0
0
0
0
0
0
0
0
0
0
0
0
0
0
0
0
0
0
0
0
0
0
0
0
0
0
0
0
0
0
0
0
0
0
0
8.342266954e-08
1.266659953e-08
1.756139216e-09
1.706015744e-09
3.236843774e-10
1.740906607e-11
5.197424875e-13
1.032597895e-14
4.80125719e-15
6.150111522e-17
0
0
0
0
0
0
0
0
0
0
0
0
0
0
0
0
0
0
0
0
0
0
0
0
0
0
0
0
0
0
0
0
0
0
0
0
0
0
0
0
0
0
0
0
0
0
0
0
0
0
6.910842027e-08
1.101759454e-08
1.789704792e-09
1.860647621e-09
4.453394895e-10
2.573470381e-11
9.112217285e-13
1.203913151e-14
3.806988817e-15
6.023044256e-17
0
0
0
0
0
0
0
0
0
0
0
0
0
0
0
0
0
0
0
0
0
0
0
0
0
0
0
0
0
0
0
0
0
0
0
0
0
0
0
0
0
0
0
0
0
0
0
0
0
0
6.742720781e-08
1.187465226e-08
2.152604223e-09
2.978503432e-09
3.507860451e-10
2.111155588e-11
8.73697558e-13
3.833929166e-14
6.173731641e-15
1.271422994e-16
0
0
0
0
0
0
0
0
0
0
0
0
0
0
0
0
0
0
0
0
0
0
0
0
0
0
0
0
0
0
0
0
0
0
0
0
0
0
0
0
0
0
0
0
0
0
0
0
0
0
6.56289571e-08
1.223370472e-08
2.597825138e-09
6.538297518e-09
4.220799771e-10
2.007678819e-11
7.668990086e-13
2.394196504e-14
3.431484152e-15
6.792347463e-17
0
0
0
0
0
0
0
0
0
0
0
0
0
0
0
0
0
0
0
0
0
0
0
0
0
0
0
0
0
0
0
0
0
0
0
0
0
0
0
0
0
0
0
0
0
0
0
0
0
0
1.091588155e-07
1.943079167e-08
4.100336374e-09
7.072965415e-10
6.58765726e-11
4.500862926e-12
2.344114696e-13
2.371805114e-14
1.38515612e-15
2.285690808e-15
7.670967275e-18
0
0
0
0
0
0
0
0
0
0
0
0
0
0
0
0
0
0
0
0
0
0
0
0
0
0
0
0
0
0
0
0
0
0
0
0
0
0
0
0
0
0
0
0
0
0
0
0
0
1.190330936e-07
3.164030052e-08
4.69971234e-09
4.103372645e-10
2.750883299e-11
1.599148735e-12
8.114183232e-14
6.954307715e-15
1.088658485e-15
2.563926844e-15
1.466975703e-15
0
0
0
0
0
0
0
0
0
0
0
0
0
0
0
0
0
0
0
0
0
0
0
0
0
0
0
0
0
0
0
0
0
0
0
0
0
0
0
0
0
0
0
0
0
0
0
0
0
1.602557053e-08
4.257338363e-09
6.508930859e-10
6.679922773e-11
5.510919291e-12
3.901454119e-13
3.021462153e-14
5.081592501e-16
1.262369531e-16
5.14928168e-16
2.564109646e-15
9.429235677e-16
0
0
0
0
0
0
0
0
0
0
0
0
0
0
0
0
0
0
0
0
0
0
0
0
0
0
0
0
0
0
0
0
0
0
0
0
0
0
0
0
0
0
0
0
0
0
0
0
1.451299548e-09
3.998593095e-10
7.035847057e-11
9.086006417e-12
9.423873784e-13
7.981244693e-14
0
6.427141392e-17
6.224656032e-18
0
1.173021662e-16
2.410377466e-15
8.608585701e-16
0
0
0
0
0
0
0
0
0
0
0
0
0
0
0
0
0
0
0
0
0
0
0
0
0
0
0
0
0
0
0
0
0
0
0
0
0
0
0
0
0
0
0
0
0
0
0
1.263505518e-10
3.763725447e-11
7.784960644e-12
1.210634876e-12
1.479651875e-13
1.493168208e-14
1.890998904e-15
1.153804919e-16
2.933595723e-18
0
0
1.209031223e-16
2.542881724e-15
1.000159607e-15
0
0
0
0
0
0
0
0
0
0
0
0
0
0
0
0
0
0
0
0
0
0
0
0
0
0
0
0
0
0
0
0
0
0
0
0
0
0
0
0
0
0
0
0
0
0
1.132270233e-11
3.724665266e-12
8.732742273e-13
1.5341873e-13
2.087988274e-14
2.095680669e-15
0
6.807739785e-19
2.295366164e-18
1.372312917e-18
2.756161235e-17
0
1.865978434e-16
3.133919835e-15
1.492171457e-15
0
0
0
0
0
0
0
0
0
0
0
0
0
0
0
0
0
0
0
0
0
0
0
0
0
0
0
0
0
0
0
0
0
0
0
0
0
0
0
0
0
0
0
0
0
1.016858157e-12
3.612644378e-13
8.358518396e-14
1.544400026e-14
2.190068753e-15
2.858533177e-16
3.897080663e-17
4.696959531e-18
6.353126735e-19
1.112879597e-18
5.725727383e-18
2.172564714e-18
0
1.279534186e-16
2.905738832e-15
8.061849775e-16
0
0
0
0
0
0
0
0
0
0
0
0
0
0
0
0
0
0
0
0
0
0
0
0
0
0
0
0
0
0
0
0
0
0
0
0
0
0
0
0
0
0
0
0
7.65266879e-14
2.9380178e-14
7.988504588e-15
2.033266658e-15
2.959831284e-16
1.852058907e-18
1.05523292e-19
0
2.077468094e-19
1.464723944e-18
0
2.354174178e-18
0
7.254986058e-17
2.119554036e-15
2.669681071e-15
1.821089168e-16
0
0
0
0
0
0
0
0
0
0
0
0
0
0
0
0
0
0
0
0
0
0
0
0
0
0
0
0
0
0
0
0
0
0
0
0
0
0
0
0
0
0
0
6.302972495e-15
2.507706095e-15
7.001360224e-16
0
0
0
0
0
4.694696358e-20
6.215838598e-19
2.419697193e-18
0
5.294125367e-18
0
0
3.436447817e-15
4.119539658e-15
7.83564943e-16
0
0
0
0
0
0
0
0
0
0
0
0
0
0
0
0
0
0
0
0
0
0
0
0
0
0
0
0
0
0
0
0
0
0
0
0
0
0
0
0
0
0
6.840253221e-16
2.982965823e-16
7.104251956e-17
3.057094885e-18
3.0651597e-18
3.887031753e-19
4.931407184e-19
0
0
1.854301816e-18
8.310292461e-18
0
7.74865982e-19
1.361346689e-17
0
1.351217789e-16
4.395279379e-15
5.199328865e-15
1.100197576e-15
0
0
0
0
0
0
0
0
0
0
0
0
0
0
0
0
0
0
0
0
0
0
0
0
0
0
0
0
0
0
0
0
0
0
0
0
0
0
0
0
0
3.078640163e-17
0
3.817416234e-18
1.967087416e-18
2.100122666e-18
7.042388062e-19
5.162748484e-19
0
0
0
0
8.350695596e-18
0
1.918015909e-18
2.368888413e-19
0
6.975742039e-16
3.60911617e-15
1.069253039e-15
0
0
0
0
0
0
0
0
0
0
0
0
0
0
0
0
0
0
0
0
0
0
0
0
0
0
0
0
0
0
0
0
0
0
0
0
0
0
0
0
0
0
8.840527561e-19
9.666675394e-19
5.733720697e-19
3.732679215e-19
2.690963341e-19
1.888611967e-19
1.320286726e-20
0
0
0
1.128678935e-17
5.315155779e-18
0
0
0
0
3.847998095e-15
4.874413609e-15
1.532554601e-15
0
0
0
0
0
0
0
0
0
0
0
0
0
0
0
0
0
0
0
0
0
0
0
0
0
0
0
0
0
0
0
0
0
0
0
0
0
0
0
0
9.75029132e-19
7.414751521e-19
5.138250149e-19
7.574549309e-19
4.194122243e-19
4.160252169e-19
6.059322568e-19
1.078631713e-18
1.905759407e-18
0
8.251596341e-18
8.518276774e-18
1.03935129e-17
0
0
1.507773154e-18
0
1.692437537e-16
5.147863164e-15
6.359581424e-15
2.196168582e-15
0
0
0
0
0
0
0
0
0
0
0
0
0
0
0
0
0
0
0
0
0
0
0
0
0
0
0
0
0
0
0
0
0
0
0
0
0
0
0
4.259266869e-19
3.824168087e-19
3.913939572e-19
3.900348971e-19
3.233274288e-19
6.360389672e-19
1.052304755e-18
1.266250212e-18
1.746384124e-18
3.868602107e-18
6.196873682e-18
6.309922388e-19
9.375734288e-18
0
0
0
3.221570305e-17
8.419334196e-16
5.197349175e-15
7.143807563e-15
4.04860149e-15
1.178231352e-15
0
0
0
0
0
0
0
0
0
0
0
0
0
0
0
0
0
0
0
0
0
0
0
0
0
0
0
0
0
0
0
0
0
0
0
0
0
0
2.892922719e-19
3.182289854e-19
3.804395783e-19
4.57971807e-19
4.240187083e-19
9.139755473e-19
1.657795995e-18
2.016087877e-18
2.045628317e-18
3.049729864e-18
3.719150102e-18
1.152920263e-17
1.6951088e-17
1.06705222e-17
0
0
0
0
4.121973063e-16
6.356817389e-15
8.412860531e-15
4.598008583e-15
1.082784207e-15
0
0
0
0
0
0
0
0
0
0
0
0
0
0
0
0
0
0
0
0
0
0
0
0
0
0
0
0
0
0
0
0
0
0
0
0
0
3.598943419e-19
4.696909738e-19
6.10422614e-19
8.356790012e-19
1.071666835e-18
1.744618269e-18
2.734411158e-18
3.77125217e-18
4.340182345e-18
4.012493668e-18
3.683938779e-18
7.539514819e-18
0
8.485271944e-18
0
0
3.443543576e-17
3.568084e-16
1.567477622e-15
6.178376823e-15
9.422353214e-15
9.653782162e-15
4.240979062e-15
1.363673333e-16
0
0
0
0
0
0
0
0
0
0
0
0
0
0
0
0
0
0
0
0
0
0
0
0
0
0
0
0
0
0
0
0
0
0
0
0
6.071639887e-19
7.42266342e-19
1.146641563e-18
1.546495341e-18
2.236991026e-18
3.098836467e-18
4.280085423e-18
5.803271843e-18
6.799582025e-18
6.558424398e-18
7.532056948e-18
3.916927479e-18
0
9.036563405e-18
0
0
0
1.074848378e-17
0
3.37924107e-16
7.32036479e-15
1.008052529e-14
6.323412756e-15
2.263063557e-15
0
0
0
0
0
0
0
0
0
0
0
0
0
0
0
0
0
0
0
0
0
0
0
0
0
0
0
0
0
0
0
0
0
0
0
0
1.391252854e-18
1.643337372e-18
1.905094088e-18
2.340443171e-18
2.995539383e-18
4.025640171e-18
5.184981973e-18
6.903792244e-18
8.070424082e-18
8.500108443e-18
1.033713704e-17
1.800382119e-18
0
2.515808235e-18
0
0
0
0
4.39088462e-17
5.423262454e-16
4.433657965e-15
8.971750573e-15
1.048691074e-14
5.905774234e-15
1.705536905e-15
0
0
0
0
0
0
0
0
0
0
0
0
0
0
0
0
0
0
0
0
0
0
0
0
0
0
0
0
0
0
0
0
0
0
0
1.793684664e-18
2.037424421e-18
2.101548947e-18
2.269375643e-18
2.743358176e-18
3.377055151e-18
4.167513275e-18
5.541926485e-18
6.456644711e-18
7.452054193e-18
9.071464676e-18
1.968274396e-18
1.973451106e-18
7.80648888e-19
5.05414065e-18
0
0
0
3.63720836e-17
0
1.108264125e-16
8.277529278e-15
1.223188558e-14
9.558089823e-15
4.897553481e-15
4.635617688e-16
0
0
0
0
0
0
0
0
0
0
0
0
0
0
0
0
0
0
0
0
0
0
0
0
0
0
0
0
0
0
0
0
0
0
1.491817869e-18
1.503765214e-18
1.304755688e-18
1.163222048e-18
1.293301967e-18
1.516891282e-18
1.885472878e-18
2.827285813e-18
3.316790362e-18
3.906949583e-18
5.12593064e-18
4.944321963e-19
2.842289984e-18
7.970713959e-19
8.146095728e-18
0
0
0
3.318475951e-17
0
0
4.184397545e-18
9.478284352e-15
1.25050556e-14
8.204457073e-15
3.268000017e-15
1.317210914e-17
0
0
0
0
0
0
0
0
0
0
0
0
0
0
0
0
0
0
0
0
0
0
0
0
0
0
0
0
0
0
0
0
0
9.709875324e-19
7.373874193e-19
4.576381617e-19
1.971218986e-19
3.377640546e-19
1.408988553e-19
1.818887968e-19
7.420007972e-19
9.638971219e-19
1.489394303e-18
2.982197624e-18
1.019109386e-19
3.622379213e-20
0
7.85751772e-18
0
0
0
3.094286298e-19
3.488966006e-17
0
0
9.583562378e-15
1.541452706e-14
1.698263121e-14
8.239006905e-15
2.193139499e-15
0
0
0
0
0
0
0
0
0
0
0
0
0
0
0
0
0
0
0
0
0
0
0
0
0
0
0
0
0
0
0
0
0
3.091486867e-19
1.804506324e-19
5.992514078e-20
0
2.076923086e-20
4.29142755e-20
0
1.743542215e-19
1.128593789e-19
4.176467378e-19
1.959412926e-18
7.31692703e-20
1.725092039e-19
0
9.658161665e-19
0
0
0
3.055314055e-19
3.653700239e-17
0
0
3.03394612e-16
1.08457437e-14
1.467735624e-14
1.023283226e-14
4.848193052e-15
4.537316544e-16
0
0
0
0
0
0
0
0
0
0
0
0
0
0
0
0
0
0
0
0
0
0
0
0
0
0
0
0
0
0
0
0
3.284353087e-20
0
1.101711107e-20
1.784690189e-19
6.089111687e-20
4.544767441e-20
0
1.488973341e-19
7.74360481e-21
1.697786262e-19
1.214186991e-18
9.968868712e-20
1.902161927e-19
0
8.869064802e-19
0
0
0
8.603000966e-18
4.051154939e-17
3.605893176e-17
0
0
1.014490432e-14
1.581679837e-14
1.580090411e-14
9.054644986e-15
3.101561204e-15
1.043335784e-17
0
0
0
0
0
0
0
0
0
0
0
0
0
0
0
0
0
0
0
0
0
0
0
0
0
0
0
0
0
0
0
0
0
0
1.55650389e-20
4.76858363e-20
0
0
1.420599984e-19
0
9.108425867e-20
6.362977621e-19
1.395231129e-19
1.853923604e-19
0
9.437193595e-19
0
0
6.676039055e-19
0
3.874637736e-17
3.770042328e-17
0
1.393345936e-16
5.578801022e-16
1.109166492e-14
1.481158685e-14
1.064401766e-14
5.321047828e-15
8.667279301e-16
0
0
0
0
0
0
0
0
0
0
0
0
0
0
0
0
0
0
0
0
0
0
0
0
0
0
0
0
0
0
0
0
0
6.276773424e-20
1.673075617e-20
4.234213547e-20
0
0
1.427617325e-19
0
7.117817597e-20
2.830057568e-19
1.543446174e-19
1.865872499e-19
0
1.055037592e-18
0
0
0
0
0
4.007625905e-17
3.960886619e-17
0
0
1.026233195e-14
1.594586801e-14
1.600526023e-14
9.385457761e-15
3.45726147e-15
2.821163559e-17
0
0
0
0
0
0
0
0
0
0
0
0
0
0
0
0
0
0
0
0
0
0
0
0
0
0
0
0
0
0
0
5.628034026e-20
3.142681604e-20
4.506933966e-20
0
0
1.469450743e-19
2.160744218e-20
0
6.640442941e-20
2.560195977e-19
1.640462397e-19
6.450660729e-20
0
9.786493062e-19
0
0
0
0
7.275990126e-18
4.078416245e-17
4.07491033e-17
0
0
5.895174434e-15
1.196993943e-14
1.472484471e-14
1.038604908e-14
5.138498664e-15
8.385775185e-16
0
0
0
0
0
0
0
0
0
0
0
0
0
0
0
0
0
0
0
0
0
0
0
0
0
0
0
0
0
0
4.764310549e-20
2.779441308e-20
4.283788181e-21
3.859688037e-20
0
0
1.434651152e-19
0
0
5.388521282e-20
2.53922631e-19
1.486287063e-19
1.304054817e-19
3.377757661e-19
9.798732212e-19
0
0
0
1.126678237e-18
7.653827934e-18
3.889096918e-17
4.401418109e-17
3.817001901e-17
0
0
9.897778837e-15
1.497314828e-14
1.461643424e-14
8.082457964e-15
2.685569483e-15
1.90689672e-17
0
0
0
0
0
0
0
0
0
0
0
0
0
0
0
0
0
0
0
0
0
0
0
0
0
0
0
0
0
7.458511639e-21
3.163429791e-21
3.95938063e-20
0
0
1.463445227e-21
7.256212503e-21
0
0
0
2.412646273e-19
1.272791993e-19
0
1.811375178e-19
0
9.988722017e-20
0
0
1.143540317e-18
3.396646862e-18
8.023122959e-18
4.057457802e-17
3.743251605e-17
0
1.88964651e-17
7.33567612e-15
1.275922452e-14
1.464610537e-14
1.00329224e-14
4.870874291e-15
8.69390898e-16
0
0
0
0
0
0
0
0
0
0
0
0
0
0
0
0
0
0
0
0
0
0
0
0
0
0
0
0
0
3.472535578e-21
3.887370574e-20
0
0
0
1.342554789e-19
0
0
5.937736136e-20
0
2.407446332e-19
1.087001589e-19
0
1.715701701e-19
0
0
0
0
0
0
8.186530217e-18
3.951584684e-17
3.777993546e-17
0
2.410970519e-16
3.184394957e-16
1.122265559e-14
1.749510943e-14
1.871826389e-14
1.032935059e-14
3.674195834e-15
5.397240922e-17
0
0
0
0
0
0
0
0
0
0
0
0
0
0
0
0
0
0
0
0
0
0
0
0
0
0
0
0
3.903103209e-20
0
0
0
2.151804818e-21
1.140651412e-20
0
0
3.694243604e-20
0
2.219762577e-19
8.169955739e-20
0
1.43013074e-19
0
1.258444908e-19
5.027605358e-18
0
2.24248438e-17
7.882513781e-17
9.235605349e-17
5.782652948e-17
4.895813012e-17
3.821010555e-17
1.351495303e-18
0
9.948249758e-15
1.636679453e-14
1.790604549e-14
1.200412394e-14
5.931307363e-15
1.310823579e-15
0
0
0
0
0
0
0
0
0
0
0
0
0
0
0
0
0
0
0
0
0
0
0
0
0
0
0
0
0
0
0
0
1.340461999e-19
0
0
0
0
2.287038424e-19
3.482278e-19
2.054746402e-20
0
1.206935321e-18
0
1.814524969e-17
8.930366404e-17
1.325362576e-16
2.03766977e-16
2.974461097e-16
4.057444317e-16
4.224233219e-16
3.265365959e-16
1.943618321e-16
0
4.60075263e-16
5.049867886e-16
1.121135995e-14
1.568530191e-14
1.26364746e-14
7.608011409e-15
2.605131655e-15
2.642267154e-17
0
0
0
0
0
0
0
0
0
0
0
0
0
0
0
0
0
0
0
0
0
0
0
0
0
0
0
0
0
0
0
0
0
1.502439754e-20
2.936263864e-19
1.231837933e-18
5.170517827e-18
1.058690059e-17
1.749502005e-17
3.173379076e-17
4.842834112e-17
6.081059814e-17
1.209960443e-16
2.355108379e-16
3.207556903e-16
4.219549486e-16
5.227419179e-16
6.70672736e-16
6.967573913e-16
5.754659198e-16
3.934130504e-16
1.633542423e-16
3.386652126e-16
0
1.015065354e-14
1.586923615e-14
1.633691881e-14
1.046418521e-14
4.897761476e-15
9.042759369e-16
0
0
0
0
0
0
0
0
0
0
0
0
0
0
0
0
0
0
0
0
0
0
0
0
0
0
0
0
0
2.475749168e-22
1.047714161e-20
8.039215386e-20
3.264841217e-19
8.450942873e-19
2.002442148e-18
4.489948789e-18
1.272984409e-17
2.295334222e-17
3.597541499e-17
5.876463896e-17
8.174389886e-17
9.953200301e-17
1.62212417e-16
2.734290042e-16
3.475638249e-16
4.370344216e-16
5.318671253e-16
6.270819893e-16
6.207481203e-16
4.893804653e-16
3.100618541e-16
1.2596439e-16
0
0
6.927655441e-15
1.295999555e-14
1.594493013e-14
1.232376796e-14
7.514733731e-15
2.764509127e-15
3.642811184e-17
0
0
0
0
0
0
0
0
0
0
0
0
0
0
0
0
0
0
0
0
0
0
0
0
0
0
0
0
0
0
0
6.111182499e-20
2.926067816e-19
8.476511811e-19
3.31014854e-18
1.107454715e-17
1.9663327e-17
2.896337411e-17
4.615724348e-17
5.894647287e-17
6.147482934e-17
9.62835297e-17
1.686969677e-16
1.951314164e-16
2.311077258e-16
2.744634097e-16
3.328622558e-16
3.388452873e-16
2.6721951e-16
1.282262552e-16
5.242291904e-17
0
3.178855761e-16
3.868657997e-16
1.166188494e-14
1.791930645e-14
1.837360037e-14
1.216091299e-14
6.029980799e-15
1.404595704e-15
0
0
0
0
0
0
0
0
0
0
0
0
0
0
0
0
0
0
0
0
0
0
0
0
0
0
2.726728023e-21
0
0
0
0
0
0
0
1.110830116e-18
3.340503496e-18
5.911203339e-18
7.653796099e-18
1.272393835e-17
1.197493194e-17
1.894110434e-18
8.383679683e-18
4.528643535e-17
4.455921114e-17
3.150631741e-17
3.962592414e-17
7.328960551e-17
9.1317206e-17
7.422738201e-17
5.308769677e-17
4.44716197e-17
4.311453093e-17
2.131471747e-16
0
1.056408294e-14
1.74204412e-14
1.936306849e-14
1.427275139e-14
8.209292884e-15
2.829530267e-15
3.766584519e-17
0
0
0
0
0
0
0
0
0
0
0
0
0
0
0
0
0
0
0
0
0
0
0
0
0
0
0
0
0
0
0
0
0
3.144349556e-19
4.851361065e-19
8.160897678e-19
6.806446586e-19
2.045871641e-18
1.735828215e-18
0
2.532958287e-20
1.245942939e-17
1.118821657e-17
0
0
1.452674546e-17
1.143554061e-17
1.236195938e-17
4.107433566e-17
4.6702845e-17
5.773814657e-17
9.963479001e-17
8.298967601e-16
1.558331576e-15
1.343384095e-14
2.011249483e-14
2.163063135e-14
1.251018825e-14
5.295752144e-15
8.617739677e-16
0
0
0
0
0
0
0
0
0
0
0
0
0
0
0
0
0
0
0
0
0
0
0
0
0
0
0
0
0
0
0
0
2.640231922e-19
3.351702914e-19
3.470119679e-19
1.598186711e-19
9.459320095e-19
1.224300189e-18
1.000822374e-18
0
0
6.998060512e-18
5.937915217e-18
0
0
5.105493391e-18
5.492595584e-18
7.132700609e-18
2.822289976e-17
4.423637037e-17
3.975586534e-17
0
4.269714528e-16
1.981344477e-16
1.184159255e-14
1.899918093e-14
2.061875e-14
1.452670458e-14
8.100049891e-15
2.750693262e-15
3.687345392e-17
0
0
0
0
0
0
0
0
0
0
0
0
0
0
0
0
0
0
0
0
0
0
0
0
0
0
0
0
1.22977618e-20
2.093527171e-19
3.92653897e-20
3.135417782e-19
3.322974925e-19
2.739707614e-19
0
9.312916934e-19
1.245205504e-18
1.160330829e-18
1.540574342e-18
8.382180014e-19
7.374818176e-18
6.553234423e-18
0
0