/*--------------------------------*- C++ -*----------------------------------*\
  =========                 |
  \\      /  F ield         | OpenFOAM: The Open Source CFD Toolbox
   \\    /   O peration     | Website:  https://openfoam.org
    \\  /    A nd           | Version:  10
     \\/     M anipulation  |
\*---------------------------------------------------------------------------*/
FoamFile
{
    format      ascii;
    class       volScalarField;
    location    "0.02498436188";
    object      CH2CHO;
}
// * * * * * * * * * * * * * * * * * * * * * * * * * * * * * * * * * * * * * //

dimensions      [0 0 0 0 0 0 0];

internalField   nonuniform List<scalar> 
5170
(
0
0
0
0
0
0
0
0
0
0
0
0
0
0
0
0
0
0
0
0
0
0
0
0
0
0
0
0
0
0
0
0
0
0
0
0
0
0
0
0
0
0
0
0
0
0
0
0
0
0
0
0
0
0
0
0
0
0
0
0
0
0
0
0
0
0
0
0
0
0
0
0
0
0
0
0
0
0
0
0
0
0
0
0
0
0
0
0
0
0
0
0
0
0
0
0
0
0
0
0
2.080420345e-22
3.891012969e-24
0
4.614957406e-24
4.595902044e-24
2.240139234e-22
0
0
0
0
3.097512004e-23
2.278878625e-25
0
1.59442324e-24
0
0
1.406567394e-23
0
0
0
0
4.884275966e-23
0
1.040404895e-21
0
0
0
0
2.260551628e-19
0
0
0
0
1.082697799e-16
1.778242405e-15
1.826132251e-15
5.238242862e-17
1.547801557e-16
3.882689682e-15
9.136311961e-14
8.845907664e-14
2.530838759e-15
1.329061016e-15
2.12483273e-15
0
0
0
0
0
0
0
0
0
0
0
0
0
0
0
0
0
0
0
0
4.759856519e-16
2.774149651e-16
0
0
1.570801188e-16
1.195993602e-14
0
1.260800708e-15
4.321609003e-16
2.545853646e-16
9.092310265e-15
4.057679786e-15
5.249242221e-16
3.153121362e-16
8.679327346e-15
2.598261483e-14
8.896134269e-15
8.461352015e-15
8.857862319e-15
1.382281486e-14
4.968750674e-14
2.42854351e-14
9.353782434e-15
9.830168986e-15
2.523933299e-14
2.531025153e-14
1.7725275e-13
5.206504415e-14
2.478435797e-14
5.003631291e-14
2.522671211e-14
1.519608408e-11
2.866451015e-12
9.086104169e-13
1.74644139e-13
8.586621059e-15
0
0
7.780769279e-13
4.189012402e-11
1.415471312e-09
0
0
1.71817824e-11
2.518991503e-10
6.895732022e-09
0
2.937465532e-13
2.94460671e-11
5.196996009e-10
9.960037267e-09
0
2.398266798e-12
5.032205193e-11
7.511669059e-10
1.052975772e-08
0
6.257414574e-12
7.408208828e-11
9.454866522e-10
1.060121552e-08
0
1.070462495e-11
7.864676725e-11
1.207523503e-09
1.176433919e-08
8.951632739e-13
1.986090988e-11
1.210393442e-10
1.701554825e-09
1.498433412e-08
2.216135059e-12
2.678461668e-11
1.984762058e-10
2.380864511e-09
1.856654965e-08
2.671521998e-12
1.806848153e-11
3.12518959e-10
3.168874019e-09
2.162213874e-08
6.333559885e-12
3.445621566e-11
4.636918717e-10
3.980273487e-09
2.359735546e-08
2.042818428e-11
8.799563662e-11
6.927842722e-10
5.096933791e-09
2.671105992e-08
1.876045107e-11
1.229262502e-10
1.021361238e-09
6.540667599e-09
3.0265865e-08
1.106054603e-11
2.073938305e-10
1.478047511e-09
8.223195995e-09
3.315858023e-08
6.410866414e-11
3.517106986e-10
2.117557426e-09
1.034780948e-08
3.626096704e-08
1.567915561e-10
6.165292575e-10
3.08495813e-09
1.307986308e-08
3.920562265e-08
3.438310908e-10
1.076982262e-09
4.534016514e-09
1.658413171e-08
4.222104189e-08
8.095877451e-10
2.063054251e-09
7.116339967e-09
2.162173985e-08
4.569914832e-08
2.113022345e-09
4.350040475e-09
1.200900499e-08
2.920035679e-08
5.255018397e-08
5.250110047e-09
8.960893201e-09
2.010654312e-08
4.013519672e-08
5.810316048e-08
1.237482059e-08
1.774925188e-08
3.047739489e-08
4.740407895e-08
5.713533865e-08
2.310531299e-08
2.827074044e-08
3.841485404e-08
4.910155738e-08
5.480395952e-08
3.288307542e-08
3.627702252e-08
4.30192702e-08
5.143568641e-08
6.02299572e-08
3.315947381e-08
3.522846113e-08
3.963029157e-08
4.599699009e-08
5.414326736e-08
2.088775833e-08
2.157046158e-08
2.29198963e-08
2.46690614e-08
2.658307924e-08
7.564088237e-09
7.615236245e-09
7.68675749e-09
7.691323252e-09
7.563673609e-09
1.688660335e-09
1.67334654e-09
1.632784324e-09
1.555398601e-09
1.441756937e-09
3.144109296e-10
3.094657217e-10
2.958899063e-10
2.753469229e-10
2.469334834e-10
5.367451404e-11
5.262799368e-11
4.988317683e-11
4.580981446e-11
4.060023726e-11
9.150799167e-12
8.988956979e-12
8.635543537e-12
7.794491029e-12
6.623595123e-12
1.665067002e-12
1.657929588e-12
1.64488907e-12
1.501715326e-12
1.281535739e-12
1.450482957e-13
1.563067947e-13
1.899453524e-13
2.606711762e-13
2.52281446e-13
5.645569681e-14
5.6878515e-14
5.813217931e-14
6.065738936e-14
5.956065261e-14
1.96219789e-14
1.940795642e-14
1.884593252e-14
1.835335093e-14
1.767113596e-14
1.125686436e-14
1.140463266e-14
1.174733754e-14
1.234369208e-14
1.328105297e-14
1.779470934e-14
1.839383823e-14
1.976569764e-14
2.196620218e-14
2.513760751e-14
3.536248763e-14
3.687713587e-14
4.03343992e-14
4.579923513e-14
5.339987361e-14
5.89195245e-14
6.065823821e-14
6.457303706e-14
6.997923038e-14
7.690754781e-14
4.821667598e-14
4.963838789e-14
5.278141298e-14
5.766227399e-14
6.37363601e-14
2.69034298e-14
2.749697398e-14
2.872526043e-14
3.043670993e-14
3.26475423e-14
1.032393784e-14
1.069327644e-14
1.099062261e-14
1.096577024e-14
9.684227441e-15
2.670349414e-16
2.711691487e-16
2.655508522e-16
2.165266808e-16
4.623616402e-17
0
0
0
0
0
0
0
1.864711768e-16
2.52262951e-16
2.308694976e-16
3.2382092e-17
5.47037706e-17
5.728173372e-17
3.773732606e-17
1.798287398e-17
0
0
0
0
0
0
0
0
0
0
0
0
0
0
0
5.521535487e-16
4.312250991e-16
4.692916617e-17
0
6.878247569e-18
0
0
0
0
0
0
0
0
0
0
0
0
0
0
0
0
0
0
0
0
0
0
0
0
0
0
0
0
0
0
0
0
0
0
0
0
0
0
0
0
0
0
0
0
0
0
0
0
0
0
0
0
0
0
0
0
0
0
0
0
5.68124401e-19
5.908115772e-19
6.616321537e-19
7.678236697e-19
8.356860652e-19
7.892403737e-19
7.418591262e-19
6.530734118e-19
6.589609466e-19
1.045423031e-18
6.81232108e-18
7.074757966e-18
7.528652878e-18
7.454043673e-18
4.318154871e-18
6.341751382e-18
5.880282738e-18
5.452417733e-18
5.644753771e-18
7.860000092e-18
6.673040435e-18
6.423885613e-18
6.457941755e-18
7.280549413e-18
1.023531306e-17
5.991458361e-18
5.856830857e-18
6.110116836e-18
7.183122236e-18
1.03281025e-17
5.498368253e-17
5.845638518e-17
6.624126809e-17
7.821567702e-17
9.393056419e-17
4.785076176e-16
4.799668617e-16
4.834905663e-16
4.901955595e-16
5.02308207e-16
7.987679702e-16
7.846655387e-16
7.518763676e-16
6.984269775e-16
6.24367003e-16
2.179850325e-16
2.126327699e-16
2.025186528e-16
1.867952262e-16
1.712901681e-16
6.647767039e-09
5.263635603e-08
6.123941554e-08
5.369431814e-08
4.804055709e-08
4.924928266e-08
5.783547232e-08
6.261493697e-08
6.258964684e-08
5.813849489e-08
5.771621377e-08
5.802546299e-08
5.703207022e-08
5.575094082e-08
5.348756197e-08
5.323411761e-08
5.312197337e-08
5.515966919e-08
5.774588609e-08
5.62021156e-08
5.56196203e-08
6.642428553e-08
6.080523926e-08
2.792973109e-08
7.457157807e-09
1.362956565e-09
2.285737133e-10
3.725166981e-11
5.657759014e-12
1.114127556e-12
2.285379686e-13
5.702583645e-14
1.721676638e-14
1.419149538e-14
2.79760425e-14
5.951075632e-14
8.234570838e-14
6.863145417e-14
3.440425097e-14
8.071330904e-15
0
0
1.271064493e-16
0
0
0
0
7.628189607e-17
0
0
0
0
0
0
0
0
0
0
0
0
8.4047523e-19
1.470080948e-18
0
1.097948417e-17
1.389310891e-17
1.402440386e-17
1.049113404e-16
5.150441525e-16
5.688176782e-16
1.617748636e-16
3.881243205e-09
1.264690468e-09
6.835775519e-11
8.484736707e-12
2.932856729e-12
5.163700679e-08
3.929387211e-07
2.254576859e-08
6.90236015e-10
5.32091448e-10
1.026249388e-07
1.495327309e-07
1.543376513e-08
9.361927775e-10
2.108444738e-09
1.009175247e-07
7.912838096e-08
2.886254587e-08
2.431585439e-09
1.169712139e-09
9.583787046e-08
8.20500316e-08
3.053696197e-07
3.022425893e-08
2.98081067e-09
1.022008833e-07
1.04762102e-07
4.764026562e-07
5.962526271e-08
5.914050037e-09
1.189037861e-07
1.121850038e-07
4.221432088e-07
6.404196991e-08
7.541833561e-09
1.192252926e-07
9.826234949e-08
2.857269115e-07
6.313159586e-08
8.473182183e-09
1.089412956e-07
8.50670585e-08
2.141230119e-07
1.125645288e-07
1.626367774e-08
9.276486942e-08
6.937996286e-08
1.567308258e-07
2.065142319e-07
3.361366511e-08
8.285855708e-08
6.608445827e-08
1.467377503e-07
2.810297097e-07
5.021211587e-08
7.808549121e-08
6.530270199e-08
1.441808419e-07
3.198702195e-07
6.289602494e-08
7.494756467e-08
6.390267595e-08
1.312608953e-07
3.125080197e-07
7.490651571e-08
6.602746814e-08
6.208445018e-08
1.211555998e-07
2.882776374e-07
9.529746919e-08
5.969580444e-08
5.81862084e-08
1.142590091e-07
2.672741842e-07
1.38037402e-07
5.447030898e-08
5.477713126e-08
1.095391254e-07
2.483484919e-07
1.783208437e-07
5.151662815e-08
5.355508875e-08
1.068662399e-07
2.364769158e-07
2.128191544e-07
5.059819205e-08
5.851366082e-08
1.15307085e-07
2.539157684e-07
2.186773788e-07
5.194231086e-08
6.825981131e-08
1.429479146e-07
3.135460043e-07
1.802607717e-07
5.371078755e-08
8.036321714e-08
1.785457486e-07
3.988427006e-07
3.475040072e-07
5.593407063e-08
7.519462856e-08
1.375243511e-07
2.834426619e-07
5.226770402e-07
7.494429985e-08
1.035732288e-07
1.701347211e-07
3.111820914e-07
5.260096693e-07
7.169564873e-08
9.153172276e-08
1.104406056e-07
1.1832735e-07
1.073994235e-07
3.073436136e-08
3.205467706e-08
2.924527598e-08
2.295683179e-08
1.562538222e-08
7.670565751e-09
6.877734655e-09
5.362560999e-09
3.629451899e-09
2.164460068e-09
1.317049632e-09
1.090889395e-09
7.862579631e-10
4.966260712e-10
2.780739993e-10
2.149769108e-10
1.724557096e-10
1.172029918e-10
7.377553651e-11
4.149583e-11
3.46107342e-11
2.691260951e-11
2.003680564e-11
1.192101895e-11
6.915575871e-12
4.001720262e-12
4.390984477e-12
3.413568974e-12
2.057665038e-12
6.468429841e-13
8.811462723e-13
5.490720901e-13
4.869240413e-13
4.18165102e-13
2.309938639e-13
2.060481201e-13
1.514161067e-13
8.983106054e-14
9.188774261e-14
6.583892338e-14
5.450669058e-14
4.409234758e-14
2.957335113e-14
2.416717702e-14
1.833610194e-14
1.669013527e-14
1.466457727e-14
1.310903764e-14
1.141349208e-14
1.059542705e-14
1.554106857e-14
1.784351859e-14
2.097954857e-14
2.504736565e-14
2.900641391e-14
3.202647688e-14
4.122086908e-14
5.276012947e-14
6.077911498e-14
8.194169617e-14
6.744968265e-14
8.421728984e-14
9.764488701e-14
1.196974664e-13
1.623572153e-13
9.043087518e-14
1.066449254e-13
1.239424468e-13
1.443484729e-13
1.601447716e-13
7.621934017e-14
8.526284544e-14
8.778108353e-14
9.22329989e-14
1.045336842e-13
3.697744943e-14
3.647148973e-14
3.266656045e-14
3.196914941e-14
4.101313861e-14
5.429303906e-15
1.56779564e-15
0
0
5.614386226e-15
0
0
0
0
2.688842855e-16
0
0
7.952361622e-17
0
0
5.856052053e-17
4.469549442e-17
0
0
0
0
0
0
0
0
0
0
0
0
0
0
0
0
0
3.0615986e-16
8.26713285e-16
2.243399878e-15
1.519490831e-15
1.280066242e-15
4.250492959e-16
1.60426647e-16
2.98909443e-16
2.912794849e-16
3.989334555e-17
0
0
0
0
0
0
0
0
0
0
0
0
0
0
0
0
0
0
0
0
0
0
0
0
0
0
0
0
0
0
0
0
0
0
0
0
0
0
0
0
0
0
0
0
0
0
0
0
0
0
0
0
0
0
0
0
0
0
0
0
5.846408622e-19
1.021657073e-18
8.746069301e-19
6.658435274e-19
7.798186902e-19
2.545347727e-18
2.174289988e-18
4.626679313e-18
8.19628148e-18
6.844844954e-18
0
0
0
0
0
2.083324982e-18
3.624853711e-18
3.360241437e-18
5.942629617e-18
8.280293933e-18
9.665578449e-18
7.378490653e-18
7.346326896e-18
8.664174989e-18
9.330146593e-18
8.697314979e-18
7.627401944e-18
7.41043937e-18
1.051920594e-17
3.90240108e-17
4.433144476e-17
1.201938867e-16
1.442082824e-16
1.736634266e-16
1.981698228e-16
2.133257105e-16
5.295532605e-16
5.297670643e-16
5.232743859e-16
4.63274625e-16
3.712774569e-16
4.90034784e-16
3.648899453e-16
2.80415015e-16
2.231353849e-16
1.531469178e-16
1.500511494e-16
0
0
0
0
7.018563917e-14
0
0
0
0
0
0
0
0
0
0
0
0
0
0
0
0
0
0
0
0
0
0
0
0
0
0
0
0
0
0
0
0
0
0
0
0
0
0
0
0
0
0
0
0
0
0
0
0
0
0
0
0
0
0
0
0
0
0
0
1.223061572e-11
8.911876166e-13
0
0
0
0
0
0
0
0
0
0
0
0
0
0
0
0
0
0
0
0
0
0
0
0
0
0
0
0
0
0
0
0
0
0
0
0
0
0
0
0
0
0
0
0
0
0
0
0
0
0
0
0
0
0
0
0
0
0
9.712935205e-11
0
0
0
0
0
0
0
0
0
0
0
0
0
0
0
0
0
0
0
0
0
0
0
0
0
0
0
0
0
0
0
0
0
0
0
0
0
0
0
0
0
0
0
0
0
0
0
0
0
0
0
0
0
0
0
0
0
0
0
1.067193965e-09
1.421348599e-11
2.082077172e-12
0
0
0
0
0
0
0
0
0
0
0
0
0
0
0
0
0
0
0
0
0
0
0
0
0
0
0
0
0
0
0
0
0
0
0
0
0
0
0
0
0
0
0
0
0
0
0
0
0
0
0
0
0
0
0
0
0
7.259536616e-09
2.5445559e-10
5.998085203e-13
1.111462917e-12
0
0
0
0
0
0
0
0
0
0
0
0
0
0
0
0
0
0
0
0
0
0
0
0
0
0
0
0
0
0
0
0
0
0
0
0
0
0
0
0
0
0
0
0
0
0
0
0
0
0
0
0
0
0
0
0
5.576676365e-09
2.204517763e-09
6.369629843e-11
1.852459884e-11
9.630349151e-13
0
0
0
0
0
0
0
0
0
0
0
0
0
0
0
0
0
0
0
0
0
0
0
0
0
0
0
0
0
0
0
0
0
0
0
0
0
0
0
0
0
0
0
0
0
0
0
0
0
0
0
0
0
0
0
1.683531577e-09
6.17536547e-09
5.633427964e-10
1.551909368e-11
5.716753424e-12
0
0
0
0
0
0
0
0
0
0
0
0
0
0
0
0
0
0
0
0
0
0
0
0
0
0
0
0
0
0
0
0
0
0
0
0
0
0
0
0
0
0
0
0
0
0
0
0
0
0
0
0
0
0
0
1.18280599e-09
3.919525739e-09
2.646570912e-09
1.470825036e-10
1.047381386e-11
2.718796337e-12
0
0
0
0
0
0
0
0
0
0
0
0
0
0
0
0
0
0
0
0
0
0
0
0
0
0
0
0
0
0
0
0
0
0
0
0
0
0
0
0
0
0
0
0
0
0
0
0
0
0
0
0
0
0
1.697188815e-09
2.093556876e-09
6.617287885e-09
9.799142648e-10
4.20184103e-11
1.548854106e-11
9.327227305e-13
0
0
0
0
0
0
0
0
0
0
0
0
0
0
0
0
0
0
0
0
0
0
0
0
0
0
0
0
0
0
0
0
0
0
0
0
0
0
0
0
0
0
0
0
0
0
0
0
0
0
0
0
0
4.108745171e-09
1.041297717e-09
6.070429901e-09
3.596241604e-09
2.88464162e-10
9.204329662e-12
3.748661686e-12
0
0
0
0
0
0
0
0
0
0
0
0
0
0
0
0
0
0
0
0
0
0
0
0
0
0
0
0
0
0
0
0
0
0
0
0
0
0
0
0
0
0
0
0
0
0
0
0
0
0
0
0
0
6.635885702e-09
9.36316614e-10
3.59525916e-09
1.014078969e-08
1.324238209e-09
6.282660429e-11
1.66341148e-11
1.169863057e-12
0
0
0
0
0
0
0
0
0
0
0
0
0
0
0
0
0
0
0
0
0
0
0
0
0
0
0
0
0
0
0
0
0
0
0
0
0
0
0
0
0
0
0
0
0
0
0
0
0
0
0
0
9.569783705e-09
1.153922827e-09
2.102687661e-09
1.423415337e-08
4.304011975e-09
2.817261429e-10
6.647549732e-12
3.618634373e-12
7.91051761e-14
0
0
0
0
0
0
0
0
0
0
0
0
0
0
0
0
0
0
0
0
0
0
0
0
0
0
0
0
0
0
0
0
0
0
0
0
0
0
0
0
0
0
0
0
0
0
0
0
0
0
0
1.120879661e-08
1.434797833e-09
1.227489617e-09
1.058189683e-08
1.16012289e-08
9.986222472e-10
3.45009781e-11
9.05961907e-12
6.852180168e-13
0
0
0
0
0
0
0
0
0
0
0
0
0
0
0
0
0
0
0
0
0
0
0
0
0
0
0
0
0
0
0
0
0
0
0
0
0
0
0
0
0
0
0
0
0
0
0
0
0
0
0
1.547253079e-08
2.247544696e-09
1.068919661e-09
6.974054757e-09
2.609213419e-08
3.028927297e-09
1.38190118e-10
2.727915708e-11
1.925250802e-12
8.495848063e-16
0
0
0
0
0
0
0
0
0
0
0
0
0
0
0
0
0
0
0
0
0
0
0
0
0
0
0
0
0
0
0
0
0
0
0
0
0
0
0
0
0
0
0
0
0
0
0
0
0
0
2.407112843e-08
3.679764264e-09
1.268314402e-09
6.725990405e-09
4.557031397e-08
6.7461616e-09
3.789493577e-10
1.27763967e-11
3.926959585e-12
1.186099544e-13
0
0
0
0
0
0
0
0
0
0
0
0
0
0
0
0
0
0
0
0
0
0
0
0
0
0
0
0
0
0
0
0
0
0
0
0
0
0
0
0
0
0
0
0
0
0
0
0
0
0
3.398909253e-08
4.670968478e-09
1.812738666e-09
8.667071084e-09
7.182275357e-08
1.107323171e-08
7.099609131e-10
3.021541266e-11
4.953849505e-12
2.010618175e-13
0
0
0
0
0
0
0
0
0
0
0
0
0
0
0
0
0
0
0
0
0
0
0
0
0
0
0
0
0
0
0
0
0
0
0
0
0
0
0
0
0
0
0
0
0
0
0
0
0
0
4.384232464e-08
7.898610042e-09
3.186671599e-09
1.356864826e-08
1.032216834e-07
1.260920746e-08
8.254047638e-10
4.73112168e-11
6.341444337e-12
2.325928425e-13
0
0
0
0
0
0
0
0
0
0
0
0
0
0
0
0
0
0
0
0
0
0
0
0
0
0
0
0
0
0
0
0
0
0
0
0
0
0
0
0
0
0
0
0
0
0
0
0
0
0
4.720649894e-08
1.101070385e-08
1.688943646e-08
1.091240254e-07
6.754212346e-08
6.538682349e-09
4.606029244e-10
2.736678001e-11
3.273253256e-12
7.178037153e-14
0
0
0
0
0
0
0
0
0
0
0
0
0
0
0
0
0
0
0
0
0
0
0
0
0
0
0
0
0
0
0
0
0
0
0
0
0
0
0
0
0
0
0
0
0
0
0
0
0
0
4.134318466e-08
2.089942964e-08
4.42648793e-08
3.005583287e-07
3.601484284e-08
2.749210674e-09
1.843437712e-10
2.443371804e-11
2.158884023e-12
8.086598117e-13
3.309654485e-16
0
0
0
0
0
0
0
0
0
0
0
0
0
0
0
0
0
0
0
0
0
0
0
0
0
0
0
0
0
0
0
0
0
0
0
0
0
0
0
0
0
0
0
0
0
0
0
0
0
1.952307002e-07
3.305227815e-07
8.544908709e-07
1.304650759e-07
1.154822939e-08
8.629169826e-10
6.422766072e-11
8.114016888e-12
2.145799773e-12
9.406058563e-13
2.98565178e-13
1.232772558e-16
0
0
0
0
0
0
0
0
0
0
0
0
0
0
0
0
0
0
0
0
0
0
0
0
0
0
0
0
0
0
0
0
0
0
0
0
0
0
0
0
0
0
0
0
0
0
0
0
6.980180257e-07
1.121064933e-06
2.432843435e-07
2.910380163e-08
2.763394514e-09
2.42386515e-10
2.595065739e-11
1.160614304e-12
1.305311856e-12
1.138643744e-12
1.03395292e-12
3.278530826e-13
0
0
0
0
0
0
0
0
0
0
0
0
0
0
0
0
0
0
0
0
0
0
0
0
0
0
0
0
0
0
0
0
0
0
0
0
0
0
0
0
0
0
0
0
0
0
0
0
5.554530866e-07
1.960744635e-07
3.68425129e-08
4.99366297e-09
5.652364974e-10
6.106066835e-11
3.138658628e-12
5.660924493e-13
2.239847396e-14
3.439739127e-13
6.698748774e-14
7.60114415e-13
2.473250437e-13
0
0
0
0
0
0
0
0
0
0
0
0
0
0
0
0
0
0
0
0
0
0
0
0
0
0
0
0
0
0
0
0
0
0
0
0
0
0
0
0
0
0
0
0
0
0
0
7.245250495e-08
2.363718484e-08
4.926704213e-09
7.80696699e-10
1.087820496e-10
1.602807273e-11
3.284755675e-12
3.435807908e-13
2.071034968e-14
0
1.695253527e-13
3.227440266e-14
6.03073689e-13
8.894660953e-14
0
0
0
0
0
0
0
0
0
0
0
0
0
0
0
0
0
0
0
0
0
0
0
0
0
0
0
0
0
0
0
0
0
0
0
0
0
0
0
0
0
0
0
0
0
0
8.505615276e-09
2.804811435e-09
6.505043851e-10
1.216163428e-10
2.054037136e-11
2.722120404e-12
0
5.357143136e-14
8.828411571e-14
1.033638633e-14
7.617731151e-14
2.461425784e-13
2.857863037e-14
5.001408206e-13
0
0
0
0
0
0
0
0
0
0
0
0
0
0
0
0
0
0
0
0
0
0
0
0
0
0
0
0
0
0
0
0
0
0
0
0
0
0
0
0
0
0
0
0
0
0
1.043322235e-09
3.485565243e-10
7.954143249e-11
1.824220294e-11
3.82808791e-12
8.360187458e-13
1.873863532e-13
3.088348232e-14
1.154971575e-14
3.068241139e-14
5.28679885e-14
7.457424871e-14
3.566832826e-13
2.672703197e-14
4.72199212e-13
0
0
0
0
0
0
0
0
0
0
0
0
0
0
0
0
0
0
0
0
0
0
0
0
0
0
0
0
0
0
0
0
0
0
0
0
0
0
0
0
0
0
0
0
0
1.253197073e-10
4.382783848e-11
1.320743524e-11
4.512050744e-12
9.744523781e-13
1.265799623e-13
2.799885879e-14
0
0
4.411583107e-15
0
1.522941337e-14
4.560164198e-13
5.406618516e-13
5.114001156e-13
5.810108254e-13
0
0
0
0
0
0
0
0
0
0
0
0
0
0
0
0
0
0
0
0
0
0
0
0
0
0
0
0
0
0
0
0
0
0
0
0
0
0
0
0
0
0
0
0
1.912079341e-11
7.214950127e-12
2.329537742e-12
0
7.335938011e-14
0
1.960879147e-15
0
0
7.101850163e-16
0
0
7.636529721e-15
1.070113691e-13
0
6.988980203e-13
8.947925788e-13
0
0
0
0
0
0
0
0
0
0
0
0
0
0
0
0
0
0
0
0
0
0
0
0
0
0
0
0
0
0
0
0
0
0
0
0
0
0
0
0
0
0
0
3.974188783e-12
1.707799224e-12
5.179254445e-13
1.289956093e-13
5.807015094e-14
1.541334462e-14
7.813944938e-15
0
0
0
0
3.037539191e-14
7.607018414e-15
7.09854038e-14
1.40825839e-13
0
6.376448956e-13
8.300848549e-13
0
0
0
0
0
0
0
0
0
0
0
0
0
0
0
0
0
0
0
0
0
0
0
0
0
0
0
0
0
0
0
0
0
0
0
0
0
0
0
0
0
0
5.388140249e-13
6.652355831e-14
9.726796753e-14
4.187868293e-14
2.169266115e-14
9.228256358e-15
5.225197197e-15
0
0
0
0
0
0
1.116027889e-14
8.685535183e-14
4.614875925e-13
3.874192368e-13
7.037215127e-13
1.377704253e-16
0
0
0
0
0
0
0
0
0
0
0
0
0
0
0
0
0
0
0
0
0
0
0
0
0
0
0
0
0
0
0
0
0
0
0
0
0
0
0
0
0
8.058636889e-14
6.296594502e-14
3.286522413e-14
6.015728712e-15
6.668539655e-15
3.343885907e-15
0
6.472957468e-16
0
0
1.189655393e-14
0
8.602666455e-15
7.540533817e-14
0
1.325404066e-13
0
4.968222375e-13
7.252903033e-13
0
0
0
0
0
0
0
0
0
0
0
0
0
0
0
0
0
0
0
0
0
0
0
0
0
0
0
0
0
0
0
0
0
0
0
0
0
0
0
0
0
4.121939682e-14
2.357145268e-14
9.782561258e-15
0
3.611294528e-15
0
0
0
0
0
1.382934596e-14
1.113956656e-14
1.263629317e-14
4.653456373e-14
0
6.004378801e-14
1.580703157e-13
0
5.92657033e-13
8.132889105e-13
0
0
0
0
0
0
0
0
0
0
0
0
0
0
0
0
0
0
0
0
0
0
0
0
0
0
0
0
0
0
0
0
0
0
0
0
0
0
0
0
1.141331982e-14
9.247901479e-15
5.46818383e-15
6.383401664e-15
6.354427117e-15
2.26365262e-14
1.068970902e-13
2.154232746e-14
1.762249949e-14
1.21247041e-14
3.216298162e-14
5.801027262e-14
2.463438276e-14
2.666634389e-14
0
5.49774474e-14
7.588019534e-14
3.765158976e-13
6.987875937e-13
8.028663469e-13
3.691837438e-15
0
0
0
0
0
0
0
0
0
0
0
0
0
0
0
0
0
0
0
0
0
0
0
0
0
0
0
0
0
0
0
0
0
0
0
0
0
0
0
1.369101072e-14
1.343584943e-14
9.50871157e-15
1.074462811e-14
3.13746199e-14
5.397898735e-14
1.616919626e-13
1.242002262e-13
7.196717596e-14
3.485624606e-14
2.919599091e-14
2.497025547e-14
0
0
7.357026273e-15
0
7.599237108e-14
1.998812896e-13
0
5.754308475e-13
7.773907642e-13
3.492784124e-16
0
0
0
0
0
0
0
0
0
0
0
0
0
0
0
0
0
0
0
0
0
0
0
0
0
0
0
0
0
0
0
0
0
0
0
0
0
0
4.12414864e-14
6.201865381e-14
7.73432111e-14
9.104983115e-14
1.40165965e-13
1.777355705e-13
2.140778539e-13
2.572162775e-13
1.190808857e-13
8.218589114e-14
4.828728165e-14
3.95105284e-14
4.458379109e-14
2.972526159e-14
8.693808604e-14
0
2.88810957e-13
8.191067151e-13
1.068722756e-12
1.299950931e-12
1.316210395e-12
1.013899512e-12
8.426956195e-16
0
0
0
0
0
0
0
0
0
0
0
0
0
0
0
0
0
0
0
0
0
0
0
0
0
0
0
0
0
0
0
0
0
0
0
0
0
1.166946743e-13
1.628022963e-13
1.712100742e-13
1.742932842e-13
2.124307385e-13
2.3064432e-13
2.432295859e-13
2.90484188e-13
1.442636772e-13
1.035775105e-13
6.485895756e-14
5.429849621e-14
6.713696997e-14
2.963519561e-14
8.562326106e-14
1.494184724e-13
0
3.167663589e-13
5.329638658e-13
0
7.809011862e-13
9.313849472e-13
9.640109068e-15
0
0
0
0
0
0
0
0
0
0
0
0
0
0
0
0
0
0
0
0
0
0
0
0
0
0
0
0
0
0
0
0
0
0
0
0
0
2.387110152e-13
2.564259811e-13
2.376818084e-13
1.991901105e-13
1.869111492e-13
1.79027364e-13
1.95355493e-13
2.676756992e-13
1.494349129e-13
1.025594994e-13
6.19924379e-14
5.491084148e-14
8.015109596e-14
3.328390178e-14
6.721866946e-14
1.449839157e-13
0
3.485126275e-13
9.099494375e-13
8.3124355e-13
8.196399898e-13
1.037363167e-12
9.149955238e-13
1.253832912e-15
0
0
0
0
0
0
0
0
0
0
0
0
0
0
0
0
0
0
0
0
0
0
0
0
0
0
0
0
0
0
0
0
0
0
0
0
1.949390666e-13
2.23763283e-13
1.671802035e-13
1.292110447e-13
1.168535276e-13
9.995439887e-14
1.188814267e-13
2.038099895e-13
1.019882421e-13
6.807843136e-14
4.061809602e-14
3.287484239e-14
4.493921051e-14
2.123952721e-14
2.004337053e-14
3.321338352e-14
0
1.740586565e-13
4.639951123e-13
6.1213951e-13
0
8.200098902e-13
9.36364117e-13
3.572530044e-14
0
0
0
0
0
0
0
0
0
0
0
0
0
0
0
0
0
0
0
0
0
0
0
0
0
0
0
0
0
0
0
0
0
0
0
0
1.310906906e-13
1.52482835e-13
9.021000259e-14
5.365981966e-14
4.434098359e-14
2.983821388e-14
5.301774722e-14
1.442646787e-13
5.397261344e-14
3.149397072e-14
1.433286686e-14
6.642128583e-15
1.210408313e-14
1.36148873e-19
2.929945615e-16
6.891837625e-14
2.175353707e-13
1.339481117e-13
4.132893205e-13
5.906177829e-13
6.449964776e-13
0
8.703939554e-13
8.73650481e-13
4.917399352e-15
0
0
0
0
0
0
0
0
0
0
0
0
0
0
0
0
0
0
0
0
0
0
0
0
0
0
0
0
0
0
0
0
0
0
0
6.980712593e-14
4.572489572e-14
1.669646095e-14
7.904080013e-16
6.118963835e-15
1.912940752e-16
0
2.055342863e-15
0
5.227738543e-15
3.646400793e-16
0
6.448463084e-15
2.526758502e-14
2.451199312e-16
4.289926489e-14
1.242563942e-13
0
2.011517773e-13
4.670007456e-13
6.150837882e-13
0
9.366234723e-13
1.296934917e-12
9.67325118e-13
1.76567723e-15
0
0
0
0
0
0
0
0
0
0
0
0
0
0
0
0
0
0
0
0
0
0
0
0
0
0
0
0
0
0
0
0
0
0
9.329961671e-15
2.12195052e-15
0
0
0
0
0
7.642187557e-16
0
3.121823085e-15
0
0
1.511241074e-15
2.710502626e-14
7.168586645e-15
1.654878262e-14
3.358523053e-14
0
1.335905338e-13
4.372885321e-13
8.241430051e-13
6.76067382e-13
0
1.02076059e-12
1.060616445e-12
3.934994171e-14
0
0
0
0
0
0
0
0
0
0
0
0
0
0
0
0
0
0
0
0
0
0
0
0
0
0
0
0
0
0
0
0
0
0
0
0
0
1.165764362e-15
0
0
0
5.257056796e-16
0
3.017786522e-15
1.015394071e-16
0
4.872563646e-16
2.476840293e-14
1.497101821e-16
0
6.004129189e-14
2.019026432e-13
1.887515634e-13
3.262476578e-13
5.197377987e-13
6.495195603e-13
0
1.028332975e-12
1.349704084e-12
1.05104723e-12
7.386781801e-15
0
0
0
0
0
0
0
0
0
0
0
0
0
0
0
0
0
0
0
0
0
0
0
0
0
0
0
0
0
0
0
0
0
0
0
0
0
0
0
0
7.595175076e-16
0
3.226480974e-15
5.893948154e-17
0
2.661155012e-16
2.39736155e-14
0
0
5.193103315e-14
1.994484967e-13
3.044137684e-14
2.696768858e-13
5.238347959e-13
8.098672277e-13
5.125754673e-13
0
9.578188802e-13
1.003841105e-12
3.150208606e-14
0
0
0
0
0
0
0
0
0
0
0
0
0
0
0
0
0
0
0
0
0
0
0
0
0
0
0
0
0
0
0
0
0
0
0
4.007092416e-16
0
0
0
7.949251041e-15
9.888962878e-16
0
3.531977176e-15
2.736332594e-16
0
0
2.303586877e-14
0
0
1.114958587e-14
3.323925909e-14
0
6.350064502e-14
3.097899902e-13
5.055722234e-13
6.113183002e-13
0
9.506507555e-13
1.301635809e-12
1.039481055e-12
9.572517857e-15
0
0
0
0
0
0
0
0
0
0
0
0
0
0
0
0
0
0
0
0
0
0
0
0
0
0
0
0
0
0
0
0
0
3.76042972e-16
0
0
0
0
5.805477058e-16
0
0
3.538172899e-15
2.899287963e-16
0
0
3.227724964e-15
0
0
0
4.923065363e-14
1.755315645e-13
1.249064737e-13
2.229469435e-13
3.757020107e-13
5.272956085e-13
0
6.55936432e-13
1.086937489e-12
1.035434214e-12
4.744675006e-14
0
0
0
0
0
0
0
0
0
0
0
0
0
0
0
0
0
0
0
0
0
0
0
0
0
0
0
0
0
0
0
0
3.463982337e-16
9.819692522e-17
0
0
0
0
4.493692967e-16
0
0
3.678990922e-15
5.989689351e-16
0
0
1.631382503e-15
0
0
0
4.228777864e-14
1.841941359e-13
6.901560573e-14
1.209513739e-13
3.050784646e-13
5.167475149e-13
5.879264741e-13
0
9.591086621e-13
1.291140408e-12
1.018729584e-12
8.927571443e-15
0
0
0
0
0
0
0
0
0
0
0
0
0
0
0
0
0
0
0
0
0
0
0
0
0
0
0
0
0
0
0
7.058595819e-18
0
0
0
0
0
0
0
0
3.373119521e-15
6.199506553e-16
0
2.057417885e-17
6.514681745e-15
2.618218806e-14
2.007951162e-16
0
1.099882247e-14
8.281238471e-14
0
4.99792512e-14
1.986641156e-13
3.816285635e-13
5.364569726e-13
0
8.387225211e-13
1.22549187e-12
1.082951235e-12
5.524642633e-14
0
0
0
0
0
0
0
0
0
0
0
0
0
0
0
0
0
0
0
0
0
0
0
0
0
0
0
0
0
0
0
0
0
0
0
0
3.89322583e-16
0
0
1.141240327e-15
3.524425393e-15
6.544873625e-16
0
1.515800936e-15
1.064614503e-14
3.18352127e-14
3.288614973e-15
0
0
0
0
2.185731225e-14
1.588208354e-13
3.341457003e-13
5.170418791e-13
0
0
9.666374887e-13
1.239103512e-12
7.734323106e-13
6.158571457e-16
0
0
0
0
0
0
0
0
0
0
0
0
0
0
0
0
0
0
0
0
0
0
0
0
0
0
0
0
0
0
0
0
0
0
0
0
0
0
2.1679995e-15
2.651042342e-15
5.509113153e-16
0
3.702635933e-15
1.336097745e-14
3.465180825e-14
6.12989983e-15
9.575011717e-16
0
2.820046052e-16
7.280974923e-14
5.164686725e-15
8.690708405e-14
2.594107732e-13
3.82967244e-13
5.729150104e-13
0
8.796396589e-13
1.262248508e-12
1.077568058e-12
4.792016684e-14
0
0
0
0
0
0
0
0
0
0
0
0
0
0
0
0
0
0
0
0
0
0
0
0
0
0
0
0
0
0
0
0
0
0
3.657366059e-16
0
0
0
3.238015298e-15
8.542997103e-16
1.000842962e-16
0
5.765914395e-15
1.532277135e-14
3.720928676e-14
9.979432805e-15
5.53551787e-15
0
2.390127823e-14
1.371907189e-13
4.594651591e-15
5.307782663e-14
2.077319213e-13
3.933751698e-13
5.721468847e-13
0
0
8.801452853e-13
9.735025231e-13
8.250484006e-14
0
0
0
0
0
0
0
0
0
0
0
0
0
0
0
0
0
0
0
0
0
0
0
0
0
0
0
0
0
0
0
0
0
0
0
0
0
0
3.259103988e-15
7.405056881e-16
3.632324561e-17
0
4.648209238e-15
1.369712332e-14
3.518038243e-14
8.463439277e-15
4.845178316e-15
0
2.195257321e-14
1.010624416e-13
0
2.009081631e-14
1.555071818e-13
3.112117727e-13
2.739564129e-13
0
0
9.095792384e-13
1.259780397e-12
1.010251499e-12
3.019226105e-14
0
0
0
0
0
0
0
0
0
0
0
0
0
0
0
0
0
0
0
0
0
0
0
0
0
0
0
0
0
0
0
0
0
0
0
0
9.150810284e-17
2.421997061e-16
8.976817332e-17
0
0
2.995720981e-15
1.130694147e-14
3.231919557e-14
6.61078048e-15
2.943300568e-15
0
0
0
0
0
7.540430474e-14
2.488394715e-13
3.763494894e-13
5.875573702e-13
0
7.344815267e-13
1.142764685e-12
1.052224129e-12
8.452256461e-14
0
0
0
0
0
0
0
0
0
0
0
0
0
0
0
0
0
0
0
0
0
0
0
0
0
0
0
0
0
0
0
0
0
0
0
0
1.970124469e-16
0
0
0
0
4.385526827e-17
5.374961745e-15
2.975325615e-14
1.366864316e-15
0
0
0
0
0
0
3.766073156e-14
1.883438997e-13
3.723282497e-13
5.601144887e-13
0
0
1.055442183e-12
1.357624307e-12
1.047805749e-12
3.640448284e-14
0
0
0
0
0
0
0
0
0
0
0
0
0
0
0
0
0
0
0
0
0
0
0
0
0
0
0
0
0
0
0
0
0
0
5.91679889e-17
1.22998823e-16
8.551010154e-17
0
0
0
0
1.92793465e-15
2.628268119e-14
1.016137822e-15
2.0021575e-17
0
0
0
1.532262282e-14
0
5.456757934e-15
1.345426035e-13
3.088419593e-13
4.782322797e-13
0
0
9.661164904e-13
1.332436425e-12
1.136693518e-12
9.889694163e-14
0
0
0
0
0
0
0
0
0
0
0
0
0
0
0
0
0
0
0
0
0
0
0
0
0
0
0
0
0
0
0
0
0
0
0
0
0
0
0
0
0
3.25278927e-16
8.906838807e-15
5.859726772e-17
1.865714708e-16
0
0
0
1.453318206e-14
0
4.74553701e-16
1.220115905e-13
2.838190267e-13
3.853986916e-13
5.014263032e-13
0
0
1.028526227e-12
1.28206479e-12
8.378299753e-13
5.335569369e-15
0
0
0
0
0
0
0
0
0
0
0
0
0
0
0
0
0
0
0
0
0
0
0
0
0
0
0
0
0
0
0
0
0
0
0
0
0
0
0
0
2.624287495e-16
8.532347431e-15
0
3.053534733e-16
0
0
0
0
0
0
3.864491906e-14
2.075827675e-13
3.775117638e-13
5.587784829e-13
0
0
9.640454509e-13
1.35505197e-12
1.133465437e-12
7.942459562e-14
0
0
0
0
0
0
0
0
0
0
0
0
0
0
0
0
0
0
0
0
0
0
0
0
0
0
0
0
0
0
0
0
2.238606117e-18
0
0
0
0
0
0
0
0
0
1.028602198e-16
2.516387747e-16
0
0
0
0
0
0
1.600585041e-15
1.143613481e-13
2.466925455e-13
3.109586839e-13
0
0
8.240849734e-13
1.22070721e-12
1.089294831e-12
1.059375589e-13
0
0
0
0
0
0
0
0
0
0
0
0
0
0
0
0
0
0
0
0
0
0
0
0
0
0
0
0
0
0
0
0
0
0
0
0
0
0
0
0
0
0
6.397747967e-17
2.810928521e-16
0
0
0
0
0
0
0
9.722414295e-14
2.115590615e-13
2.278276088e-13
3.127703246e-13
0
0
9.825528048e-13
1.3112162e-12
1.029587213e-12
4.340792288e-14
0
0
0
0
0
0
0
0
0
0
0
0
0
0
0
0
0
0
0
0
0
0
0
0
0
0
0
0
0
0
0
0
0
0
0
0
0
0
0
0
0
1.142620628e-16
3.144691003e-16
0
0
0
0
0
0
0
6.284650005e-14
2.111039305e-13
3.42004629e-13
6.235307613e-13
0
0
8.951160131e-13
1.289083036e-12
1.119529782e-12
1.017634234e-13
0
0
0
0
0
0
0
0
0
0
0
0
0
0
0
0
0
0
0
0
0
0
0
0
0
0
0
0
0
0
0
0
0
0
1.626391017e-18
3.996622451e-18
0
0
0
0
0
1.747086564e-16
3.463044294e-16
0
0
0
0
0
0
0
6.970592796e-14
1.509090161e-13
2.993727698e-13
4.664517074e-13
0
0
7.218186549e-13
1.219602648e-12
1.326186721e-12
7.956424137e-13
4.397901346e-15
0
0
0
0
0
0
0
0
0
0
0
0
0
0
0
0
0
0
0
0
0
0
0
0
0
0
0
0
0
0
0
0
1.675062533e-17
0
0
0
0
0
0
0
3.105270885e-16
4.072106729e-16
0
0
0
0
0
0
0
0
9.025121149e-14
1.790207523e-13
1.369215746e-13
0
0
0
1.004085993e-12
1.384667829e-12
1.143289018e-12
8.780359407e-14
0
0
0
0
0
0
0
0
0
0
0
0
0
0
0
0
0
0
0
0
0
0
0
0
0
2.784931593e-18
0
0
0
4.001811597e-18
2.110438399e-18
0
2.907039064e-17
6.35255761e-17
0
0
0
0
6.364452545e-16
3.447951334e-16
5.509955602e-16
4.632824451e-16
0
0
0
0
0
0
0
0
9.713135198e-14
2.103888372e-13
2.374638801e-13
3.95593316e-13
0
0
9.400034364e-13
1.346165586e-12
1.162263419e-12
1.308910582e-13
0
0
0
0
0
0
0
0
0
0
0
0
0
0
0
0
0
0
0
0
0
0
0
0
0
0
0
5.152109187e-18
7.92958847e-18
6.887549021e-18
1.5650698e-18
2.170172791e-17
2.657198428e-17
0
0
0
0
0
2.030074074e-16
2.33189256e-16
4.937052539e-16
4.500208601e-16
0
0
0
5.945741239e-16
0
0
0
0
9.121829168e-14
2.143251306e-13
2.993697274e-13
5.68622507e-13
0
0
7.699322911e-13
1.282390605e-12
1.423168242e-12
1.022258939e-12
4.370714154e-14
0
0
0
0
0
0
0
0
0
0
0
0
0
0
0
0
0
0
0
0
0
0
0
0
6.055069276e-18
9.156672565e-18
1.065799466e-17
1.126533735e-17
3.696277393e-17
3.766827917e-17
9.186829748e-17
6.373389584e-17
0
0
0
0
0
0
4.161283073e-16
5.969486771e-16
4.746678153e-16
0
0
0
6.320244628e-16
0
0
0
0
6.264837273e-14
1.334262838e-13
1.472627912e-13