/*--------------------------------*- C++ -*----------------------------------*\
  =========                 |
  \\      /  F ield         | OpenFOAM: The Open Source CFD Toolbox
   \\    /   O peration     | Website:  https://openfoam.org
    \\  /    A nd           | Version:  10
     \\/     M anipulation  |
\*---------------------------------------------------------------------------*/
FoamFile
{
    format      ascii;
    class       volScalarField;
    location    "0.02498436188";
    object      CH2CO_0;
}
// * * * * * * * * * * * * * * * * * * * * * * * * * * * * * * * * * * * * * //

dimensions      [0 0 0 0 0 0 0];

internalField   nonuniform List<scalar> 
5170
(
0
0
0
0
0
0
0
0
0
0
0
0
0
0
0
0
0
0
0
0
0
0
0
0
0
0
0
0
0
0
0
0
0
0
0
0
0
0
0
0
0
0
0
0
0
0
0
0
0
0
0
0
0
0
0
0
0
0
0
0
0
0
0
0
0
0
0
0
0
0
0
0
0
0
0
0
0
0
0
0
0
0
0
0
0
0
0
0
0
0
0
0
0
9.479265916e-14
1.030706536e-12
2.812286919e-13
2.519073772e-12
2.160407298e-11
1.539106978e-10
7.439843155e-10
2.575848048e-17
0
0
0
0
3.841481209e-17
0
0
0
0
9.031064787e-18
3.616208116e-18
0
2.273010622e-19
6.731293157e-20
1.087017236e-18
8.360278669e-18
1.484190758e-19
0
0
0
4.937675819e-17
0
9.25125704e-17
1.53545101e-15
0
0
0
4.578221481e-15
2.058445842e-14
1.920968473e-14
0
0
1.651621429e-12
7.721533781e-12
7.370819662e-12
2.955772385e-13
2.089982462e-13
6.171788212e-12
0
0
1.465822256e-11
5.970220489e-12
7.554090924e-12
0
0
4.530351235e-10
4.943688281e-11
0
0
9.346035798e-12
3.45245074e-10
0
3.289302847e-12
1.935444468e-11
1.151567613e-11
4.068524688e-12
0
0
2.00896914e-13
2.043308037e-13
0
0
0
2.788164659e-11
0
0
0
1.160977411e-11
5.12643966e-11
0
8.365768126e-13
2.276144001e-12
2.440588566e-11
4.003597601e-11
6.340965447e-12
5.604423051e-12
1.243146461e-11
3.1608049e-11
4.319791532e-11
5.10425386e-12
1.748806296e-11
2.27902615e-11
2.625810829e-11
5.587305965e-11
1.879764532e-11
1.258449759e-11
1.598526446e-11
2.790259809e-11
3.859991763e-11
5.214670445e-10
1.287894261e-10
3.737274256e-11
5.25335058e-11
3.608270232e-11
5.5113089e-08
9.471401486e-09
1.83070643e-09
3.031066123e-10
1.27983824e-11
1.948779883e-11
1.508668777e-10
2.284792325e-09
3.341087745e-08
4.395930347e-07
4.654586698e-10
3.580926093e-09
5.160363075e-08
6.771242418e-07
7.260498502e-06
2.880294314e-09
2.031788699e-08
2.438568406e-07
2.443596234e-06
1.734671151e-05
1.107340883e-08
7.065778344e-08
7.096152823e-07
5.507764992e-06
2.722146694e-05
3.316630913e-08
1.907881686e-07
1.613473082e-06
9.773770279e-06
3.593976035e-05
8.681063813e-08
4.554920433e-07
3.208945323e-06
1.525432077e-05
4.545090342e-05
2.061320038e-07
9.872541722e-07
5.766186185e-06
2.219438717e-05
5.725079782e-05
4.524006389e-07
1.962912253e-06
9.522680348e-06
3.055687856e-05
7.012952929e-05
9.374673696e-07
3.639156999e-06
1.462028767e-05
3.985833437e-05
8.235455433e-05
1.850463636e-06
6.308883206e-06
2.101545342e-05
4.95718078e-05
9.317509039e-05
3.507455088e-06
1.031580991e-05
2.85802341e-05
5.93829983e-05
0.0001029262142
6.528050014e-06
1.593432709e-05
3.708176056e-05
6.934734819e-05
0.0001124566685
1.172821296e-05
2.326670211e-05
4.647540411e-05
7.963337708e-05
0.0001222333998
1.921522101e-05
3.22127172e-05
5.672534818e-05
9.03516387e-05
0.0001324176937
2.981192656e-05
4.320564749e-05
6.818108899e-05
0.0001018507642
0.0001433501894
4.30640711e-05
5.622568326e-05
8.111900196e-05
0.0001145459229
0.0001553789526
5.952891331e-05
7.213060902e-05
9.643018959e-05
0.000129163411
0.0001690349311
7.984790947e-05
9.150598426e-05
0.0001146361901
0.0001463017037
0.0001851582969
0.0001027579889
0.0001135308174
0.0001355190834
0.0001662251279
0.0002042565628
0.0001279812639
0.0001378145014
0.0001579467087
0.000185866612
0.0002198297393
0.0001530997814
0.000160770321
0.0001760865189
0.0001962659776
0.0002189371988
0.0001689668821
0.000172812708
0.0001803688999
0.0001898296194
0.000199449814
0.00016364402
0.0001647461512
0.00016673164
0.0001687862112
0.0001700684031
0.0001423868465
0.0001422403684
0.0001416904098
0.0001404532652
0.0001382439204
0.000114985781
0.000114465461
0.0001131943532
0.0001111270509
0.0001082403804
8.825320992e-05
8.773617508e-05
8.654049933e-05
8.467823185e-05
8.21807007e-05
6.697348701e-05
6.656651195e-05
6.56227521e-05
6.416996138e-05
6.225245565e-05
5.025987221e-05
4.995893147e-05
4.926481703e-05
4.820285281e-05
4.681089352e-05
3.739899555e-05
3.718469204e-05
3.669191581e-05
3.593984518e-05
3.495648011e-05
2.754829768e-05
2.739960608e-05
2.705785591e-05
2.653639709e-05
2.585474232e-05
2.000900503e-05
1.99082847e-05
1.967637195e-05
1.932199777e-05
1.885828996e-05
1.42607331e-05
1.419422287e-05
1.404042095e-05
1.380475255e-05
1.349583554e-05
9.91981118e-06
9.877099204e-06
9.777706425e-06
9.624821849e-06
9.423985101e-06
6.697174625e-06
6.670630806e-06
6.608324358e-06
6.512025972e-06
6.385225112e-06
4.365660826e-06
4.34979042e-06
4.312128804e-06
4.253584659e-06
4.17630246e-06
2.735706452e-06
2.726641379e-06
2.704822083e-06
2.670668911e-06
2.625463358e-06
1.642136423e-06
1.637220314e-06
1.625172771e-06
1.606156054e-06
1.580911401e-06
9.414734414e-07
9.389609689e-07
9.326561057e-07
9.226000962e-07
9.092064315e-07
5.142874635e-07
5.130865108e-07
5.09977295e-07
5.049529889e-07
4.982350163e-07
2.671291987e-07
2.66598376e-07
2.651630662e-07
2.628041572e-07
2.596351092e-07
1.317231921e-07
1.315093356e-07
1.308940189e-07
1.298598041e-07
1.284620408e-07
6.15955499e-08
6.151913857e-08
6.127678379e-08
6.085649664e-08
6.028396984e-08
2.729912467e-08
2.727623305e-08
2.718994027e-08
2.703319077e-08
2.681730323e-08
1.146904656e-08
1.146422242e-08
1.143724402e-08
1.138439388e-08
1.131040197e-08
4.573599595e-09
4.573642866e-09
4.566710417e-09
4.551022273e-09
4.528452551e-09
1.737706227e-09
1.738467708e-09
1.737294457e-09
1.733404144e-09
1.727503353e-09
6.350257179e-10
6.355568757e-10
6.356374827e-10
6.349496434e-10
6.337485989e-10
2.29690869e-10
2.299508993e-10
2.301306548e-10
2.301083426e-10
2.299719767e-10
8.776517653e-11
8.7861154e-11
8.793777431e-11
8.795282082e-11
8.79342866e-11
3.979453853e-11
3.981399132e-11
3.981306412e-11
3.977925933e-11
3.972245253e-11
2.346851462e-11
2.345861659e-11
2.342843925e-11
2.337870798e-11
2.331204761e-11
1.785102491e-11
1.783837365e-11
1.780841009e-11
1.775333291e-11
1.767732539e-11
1.531420714e-11
1.529872155e-11
1.526332903e-11
1.520853048e-11
1.513503998e-11
1.375319738e-11
1.3738748e-11
1.370638641e-11
1.365685413e-11
1.359058715e-11
1.25636187e-11
1.255042034e-11
1.252106753e-11
1.247629423e-11
1.241645594e-11
1.153835426e-11
1.152643497e-11
1.149999026e-11
1.145970715e-11
1.140590647e-11
1.061481714e-11
1.060415592e-11
1.058051862e-11
1.054452489e-11
1.049646111e-11
9.774817471e-12
9.765328068e-12
9.744292788e-12
9.712264174e-12
9.669496316e-12
9.013448951e-12
9.005023928e-12
8.986351291e-12
8.957922009e-12
8.919958668e-12
8.329483384e-12
8.321958056e-12
8.305285457e-12
8.27990252e-12
8.245997406e-12
7.716388838e-12
7.709608787e-12
7.694596014e-12
7.671744943e-12
7.641220655e-12
7.166484692e-12
7.160335252e-12
7.146728338e-12
7.12602333e-12
7.098364489e-12
6.670967588e-12
6.665349396e-12
6.652927156e-12
6.634030483e-12
6.608786177e-12
6.217465832e-12
6.212332254e-12
6.200988727e-12
6.183740864e-12
6.160706759e-12
5.795491411e-12
5.790823598e-12
5.780511288e-12
5.764833588e-12
5.743898873e-12
5.396115777e-12
5.391921572e-12
5.382652146e-12
5.36855709e-12
5.349734123e-12
5.018164677e-12
5.014425838e-12
5.006155684e-12
4.993570333e-12
4.976752448e-12
4.662463809e-12
4.659145061e-12
4.651798972e-12
4.640614852e-12
4.62566548e-12
4.33854292e-12
4.335606892e-12
4.329104917e-12
4.319201638e-12
4.305959035e-12
4.074938916e-12
4.07229467e-12
4.066438406e-12
4.057517565e-12
4.045586096e-12
1.592706402e-06
3.090247915e-05
5.159721892e-05
6.144710531e-05
6.855123685e-05
8.017101844e-05
9.614698512e-05
0.0001111457218
0.0001228829289
0.0001316279958
0.0001393195484
0.00014744657
0.0001561721391
0.0001654623704
0.0001756516396
0.0001869205176
0.0001996664146
0.0002151010232
0.0002336726543
0.0002454364428
0.0002344049212
0.0002051358001
0.0001701715835
0.0001362455918
0.0001059950913
8.029449005e-05
6.083302327e-05
4.578813125e-05
3.423674758e-05
2.535764651e-05
1.852182929e-05
1.327335068e-05
9.280847599e-06
6.296131789e-06
4.123010702e-06
2.595040958e-06
1.564447021e-06
9.008194284e-07
4.942473847e-07
2.578856795e-07
1.277659936e-07
6.004049753e-08
2.674759813e-08
1.129788906e-08
4.530363964e-09
1.730846183e-09
6.358655803e-10
2.309716806e-10
8.829596607e-11
3.979917627e-11
2.329399102e-11
1.76264421e-11
1.507891108e-11
1.353803644e-11
1.236843547e-11
1.136258986e-11
1.045772649e-11
9.635018581e-12
8.889338984e-12
8.21860956e-12
7.616528549e-12
7.075951436e-12
6.588293797e-12
6.14199626e-12
5.726892255e-12
5.334453625e-12
4.963106669e-12
4.613548356e-12
4.29522789e-12
4.035911563e-12
3.834331718e-06
1.470623329e-06
8.620875187e-08
1.165308964e-08
1.67882058e-09
9.579626027e-05
0.0004809503873
2.76619559e-05
9.118064801e-07
1.432592832e-07
0.0001269460896
0.0003574111523
3.412968997e-05
1.822420198e-06
3.42065927e-07
0.0001271198755
0.0002507535699
7.212091701e-05
5.627479163e-06
5.618945805e-07
0.0001284791579
0.0002404379385
0.0003027363227
2.989950057e-05
2.166041693e-06
0.0001448858594
0.0002961189017
0.0005288643373
6.576401655e-05
6.017528964e-06
0.0001681882268
0.0003417648195
0.0005942150184
8.669411647e-05
9.76640463e-06
0.0001842284524
0.0003380273657
0.0005007405971
9.687051437e-05
1.279971582e-05
0.0001923797585
0.0003211203812
0.0004398190107
0.000180050256
2.614611858e-05
0.0001954994672
0.0003038509131
0.0003989787452
0.0002815091621
4.603850246e-05
0.0001987585589
0.0002978459491
0.0003968598041
0.0003675029402
6.579544629e-05
0.0002041121584
0.0003004303822
0.0004057409626
0.0004212994702
8.406808892e-05
0.0002106000335
0.0003030819993
0.0004029417988
0.0004391740334
0.0001255928962
0.0002181003104
0.0003073010058
0.0004044718249
0.0004587650708
0.0001902339634
0.0002267811515
0.0003133448838
0.0004080741856
0.0004703893425
0.0002459477227
0.0002365999405
0.0003202626643
0.0004111880196
0.0004754867712
0.0002968969237
0.0002476904234
0.000328291107
0.000415780351
0.0004796455655
0.0003333950541
0.0002617722179
0.0003406805937
0.0004267810047
0.0004878944117
0.0003236139371
0.0002792535886
0.0003569145278
0.0004393242681
0.000480026992
0.0002411754579
0.0002849612192
0.0003505582629
0.0004231512667
0.0004894400658
0.000328280311
0.0002580031194
0.0002874410643
0.0003046276358
0.0003001242939
0.0002506836515
0.0002141321392
0.0002185864519
0.0002104920994
0.000188307816
0.0001531403866
0.0001711028715
0.0001654921046
0.0001523117927
0.000132942161
0.0001099603353
0.0001341634708
0.0001264951566
0.0001147418418
0.0001001614153
8.436226343e-05
0.0001034693361
9.667760473e-05
8.748400446e-05
7.681554506e-05
6.562071123e-05
7.813631314e-05
7.289109399e-05
6.615411002e-05
5.855959048e-05
5.069476372e-05
5.92138889e-05
5.537420695e-05
5.052425171e-05
4.510411352e-05
3.949961109e-05
4.462742595e-05
4.188978978e-05
3.844297333e-05
3.459042019e-05
3.059148098e-05
3.342790185e-05
3.150683741e-05
2.907761477e-05
2.634934855e-05
2.349893503e-05
2.480883107e-05
2.348163821e-05
2.178640495e-05
1.986725674e-05
1.784585812e-05
1.816099419e-05
1.726148827e-05
1.6094571e-05
1.475943493e-05
1.333997367e-05
1.304497553e-05
1.24493123e-05
1.166022457e-05
1.074568842e-05
9.763410053e-06
9.142920259e-06
8.759299909e-06
8.237460989e-06
7.623645684e-06
6.957246348e-06
6.217664653e-06
5.978834162e-06
5.643181392e-06
5.241767064e-06
4.801109033e-06
4.081804802e-06
3.939098617e-06
3.730401412e-06
3.476160444e-06
3.193848481e-06
2.575743588e-06
2.494502983e-06
2.369785572e-06
2.214686129e-06
2.040390943e-06
1.556983331e-06
1.513239081e-06
1.441950273e-06
1.351225195e-06
1.247981502e-06
8.990323179e-07
8.769280414e-07
8.38112261e-07
7.874145361e-07
7.289470656e-07
4.94710056e-07
4.843299916e-07
4.642735438e-07
4.372964968e-07
4.057391766e-07
2.589159056e-07
2.544482828e-07
2.446493759e-07
2.310193707e-07
2.148288808e-07
1.286850969e-07
1.269624678e-07
1.224517151e-07
1.159295093e-07
1.080515107e-07
6.067247225e-08
6.01041955e-08
5.815434198e-08
5.520418108e-08
5.157482072e-08
2.712134793e-08
2.698012137e-08
2.619116507e-08
2.493164924e-08
2.335042502e-08
1.149565063e-08
1.148497535e-08
1.118714096e-08
1.06800258e-08
1.002889037e-08
4.625734408e-09
4.641518797e-09
4.536942105e-09
4.344332529e-09
4.090878139e-09
1.773158267e-09
1.78674873e-09
1.752695901e-09
1.683696119e-09
1.590384066e-09
6.532479768e-10
6.608755779e-10
6.507642215e-10
6.273928314e-10
5.94695086e-10
2.375886865e-10
2.409804776e-10
2.379889599e-10
2.302505267e-10
2.191403253e-10
9.058478644e-11
9.178449966e-11
9.078899007e-11
8.816241215e-11
8.436743959e-11
4.048367358e-11
4.076181006e-11
4.031682105e-11
3.934393671e-11
3.796023803e-11
2.343730651e-11
2.339562322e-11
2.310676408e-11
2.262107818e-11
2.19734449e-11
1.760423142e-11
1.745715125e-11
1.720335501e-11
1.68608623e-11
1.644497818e-11
1.50136193e-11
1.48488246e-11
1.462398132e-11
1.434658205e-11
1.40231783e-11
1.346749205e-11
1.331191398e-11
1.311255711e-11
1.287378817e-11
1.259962528e-11
1.23012164e-11
1.215898971e-11
1.198083018e-11
1.17697161e-11
1.152845823e-11
1.130120526e-11
1.117301581e-11
1.101367464e-11
1.08256089e-11
1.061113061e-11
1.040264354e-11
1.028803902e-11
1.014589172e-11
9.978318789e-12
9.78734029e-12
9.585937786e-12
9.483927811e-12
9.357478833e-12
9.208445196e-12
9.038572316e-12
8.845697241e-12
8.755030837e-12
8.642606387e-12
8.509982898e-12
8.358629447e-12
8.179437419e-12
8.098217534e-12
7.997584846e-12
7.878868976e-12
7.74333439e-12
7.58105695e-12
7.507792577e-12
7.417187307e-12
7.310367313e-12
7.18840792e-12
7.043588183e-12
6.977037821e-12
6.894922031e-12
6.798200295e-12
6.687807211e-12
6.558548516e-12
6.49768348e-12
6.422822066e-12
6.334850932e-12
6.23459958e-12
6.114755309e-12
6.059213883e-12
5.991044979e-12
5.911002059e-12
5.819818946e-12
5.702117312e-12
5.651647018e-12
5.589736259e-12
5.517060882e-12
5.434273444e-12
5.312250393e-12
5.266878248e-12
5.211091364e-12
5.145480011e-12
5.070616432e-12
4.943348162e-12
4.90278374e-12
4.852762144e-12
4.793822351e-12
4.726485212e-12
4.59607655e-12
4.560041299e-12
4.515473641e-12
4.462864492e-12
4.402673083e-12
4.279785469e-12
4.247841286e-12
4.208247839e-12
4.161432908e-12
4.107797427e-12
4.021973779e-12
3.993149828e-12
3.957417329e-12
3.915140904e-12
3.866659134e-12
1.992691838e-10
1.365174512e-11
0
0
0
0
0
0
0
0
0
0
0
0
0
0
0
0
0
0
0
0
0
0
0
0
0
0
0
0
0
0
0
0
0
0
0
0
0
0
0
0
0
0
0
0
0
0
0
0
0
0
0
0
0
0
0
0
0
0
1.578261666e-08
1.622931892e-09
1.719187274e-10
2.308256579e-11
3.424248089e-12
0
0
0
0
0
0
0
0
0
0
0
0
0
0
0
0
0
0
0
0
0
0
0
0
0
0
0
0
0
0
0
0
0
0
0
0
0
0
0
0
0
0
0
0
0
0
0
0
0
0
0
0
0
0
0
5.0587649e-08
1.015765456e-08
1.352757853e-09
1.917202052e-10
4.156933904e-11
1.133266019e-11
2.691213477e-12
0
0
0
0
0
0
0
0
0
0
0
0
0
0
0
0
0
0
0
0
0
0
0
0
0
0
0
0
0
0
0
0
0
0
0
0
0
0
0
0
0
0
0
0
0
0
0
0
0
0
0
0
0
1.065639413e-07
4.607338674e-08
1.29157064e-08
1.673990189e-09
3.264570721e-10
9.947061277e-11
3.760935792e-11
1.414273849e-11
4.236877355e-12
3.684695761e-13
0
0
0
0
0
0
0
0
0
0
0
0
0
0
0
0
0
0
0
0
0
0
0
0
0
0
0
0
0
0
0
0
0
0
0
0
0
0
0
0
0
0
0
0
0
0
0
0
0
0
4.44771081e-07
1.557905385e-07
8.487130288e-08
1.592033288e-08
2.417419955e-09
6.006252591e-10
2.123692776e-10
8.541356402e-11
3.36757543e-11
1.149397345e-11
2.673967524e-12
4.898374008e-16
0
0
0
0
0
0
0
0
0
0
0
0
0
0
0
0
0
0
0
0
0
0
0
0
0
0
0
0
0
0
0
0
0
0
0
0
0
0
0
0
0
0
0
0
0
0
0
0
9.780920411e-07
3.011763322e-07
2.060172738e-07
8.927628757e-08
1.387982247e-08
2.56189339e-09
7.484758722e-10
2.786116524e-10
1.101762642e-10
4.147666582e-11
1.334369603e-11
2.864303023e-12
1.44561233e-15
0
0
0
0
0
0
0
0
0
0
0
0
0
0
0
0
0
0
0
0
0
0
0
0
0
0
0
0
0
0
0
0
0
0
0
0
0
0
0
0
0
0
0
0
0
0
0
1.038410231e-06
3.404617837e-07
2.766226944e-07
2.335550522e-07
6.943173915e-08
1.03107144e-08
2.26063356e-09
7.286698792e-10
2.743561864e-10
1.040676558e-10
3.637852875e-11
1.042961695e-11
1.725924094e-12
0
0
0
0
0
0
0
0
0
0
0
0
0
0
0
0
0
0
0
0
0
0
0
0
0
0
0
0
0
0
0
0
0
0
0
0
0
0
0
0
0
0
0
0
0
0
0
1.029524164e-06
3.755010687e-07
2.925545998e-07
3.550604378e-07
2.31304513e-07
4.525587674e-08
7.255458773e-09
1.868046049e-09
6.321001283e-10
2.313609773e-10
8.19315888e-11
2.578076543e-11
6.157974585e-12
5.040646337e-13
0
0
0
0
0
0
0
0
0
0
0
0
0
0
0
0
0
0
0
0
0
0
0
0
0
0
0
0
0
0
0
0
0
0
0
0
0
0
0
0
0
0
0
0
0
0
2.388079325e-06
4.531742014e-07
3.309337308e-07
4.319378869e-07
4.492873825e-07
1.781004646e-07
2.620263662e-08
4.984859645e-09
1.430202235e-09
4.844697525e-10
1.666887295e-10
5.338979719e-11
1.441799552e-11
2.486566037e-12
0
0
0
0
0
0
0
0
0
0
0
0
0
0
0
0
0
0
0
0
0
0
0
0
0
0
0
0
0
0
0
0
0
0
0
0
0
0
0
0
0
0
0
0
0
0
4.882427239e-06
5.905479597e-07
4.517680717e-07
5.196663797e-07
6.360774519e-07
4.543619701e-07
9.60544082e-08
1.354046041e-08
3.118183507e-09
9.452338446e-10
3.082906109e-10
9.712644837e-11
2.723719281e-11
5.784719794e-12
3.678010167e-13
0
0
0
0
0
0
0
0
0
0
0
0
0
0
0
0
0
0
0
0
0
0
0
0
0
0
0
0
0
0
0
0
0
0
0
0
0
0
0
0
0
0
0
0
0
8.127193963e-06
8.821716572e-07
4.548114125e-07
5.726567613e-07
7.97529842e-07
7.897052663e-07
2.716264908e-07
3.801218441e-08
6.807540789e-09
1.765193513e-09
5.27944127e-10
1.589170765e-10
4.433241482e-11
1.0210595e-11
1.270277067e-12
0
0
0
0
0
0
0
0
0
0
0
0
0
0
0
0
0
0
0
0
0
0
0
0
0
0
0
0
0
0
0
0
0
0
0
0
0
0
0
0
0
0
0
0
0
1.168916887e-05
1.210985194e-06
3.836687614e-07
8.609920766e-07
1.06203176e-06
1.165860108e-06
6.279174109e-07
1.060540046e-07
1.620106737e-08
3.377435893e-09
8.754901804e-10
2.421351148e-10
6.488832969e-11
1.526728848e-11
2.389637565e-12
1.48771072e-15
0
0
0
0
0
0
0
0
0
0
0
0
0
0
0
0
0
0
0
0
0
0
0
0
0
0
0
0
0
0
0
0
0
0
0
0
0
0
0
0
0
0
0
0
1.848655337e-05
2.141297552e-06
4.020070252e-07
1.032158088e-06
1.356758401e-06
1.650939079e-06
1.159227664e-06
2.776174123e-07
3.791942037e-08
6.492403795e-09
1.392302515e-09
3.407426579e-10
8.551964897e-11
1.996061137e-11
3.462490415e-12
6.216709315e-14
0
0
0
0
0
0
0
0
0
0
0
0
0
0
0
0
0
0
0
0
0
0
0
0
0
0
0
0
0
0
0
0
0
0
0
0
0
0
0
0
0
0
0
0
3.041528204e-05
3.901531886e-06
4.463233e-07
8.166617099e-07
1.553294383e-06
2.173070854e-06
1.854702472e-06
6.443091294e-07
8.764249432e-08
1.29596771e-08
2.247342176e-09
4.688283681e-10
1.073450275e-10
2.438432773e-11
4.488615219e-12
2.045800547e-13
0
0
0
0
0
0
0
0
0
0
0
0
0
0
0
0
0
0
0
0
0
0
0
0
0
0
0
0
0
0
0
0
0
0
0
0
0
0
0
0
0
0
0
0
4.305660398e-05
6.29216517e-06
8.409314725e-07
7.592821295e-07
2.034856312e-06
2.82486403e-06
2.609365655e-06
1.245454418e-06
2.01940052e-07
2.73667347e-08
3.667569243e-09
6.156702469e-10
1.253655747e-10
2.756792712e-11
5.293785074e-12
3.533391914e-13
0
0
0
0
0
0
0
0
0
0
0
0
0
0
0
0
0
0
0
0
0
0
0
0
0
0
0
0
0
0
0
0
0
0
0
0
0
0
0
0
0
0
0
0
5.68644443e-05
8.814923627e-06
1.319353871e-06
8.35445922e-07
2.727908547e-06
3.788773293e-06
3.452236751e-06
1.921541715e-06
4.241798546e-07
5.978092827e-08
6.311659527e-09
8.036546957e-10
1.408884688e-10
3.004800502e-11
6.010993682e-12
5.000971026e-13
0
0
0
0
0
0
0
0
0
0
0
0
0
0
0
0
0
0
0
0
0
0
0
0
0
0
0
0
0
0
0
0
0
0
0
0
0
0
0
0
0
0
0
0
6.903294062e-05
1.197021941e-05
1.929576057e-06
1.358578451e-06
3.964876097e-06
5.384211852e-06
4.375193058e-06
2.443022976e-06
7.79002178e-07
1.246088774e-07
1.154861923e-08
1.134568496e-09
1.719578422e-10
3.568357714e-11
7.408489275e-12
7.877246178e-13
0
0
0
0
0
0
0
0
0
0
0
0
0
0
0
0
0
0
0
0
0
0
0
0
0
0
0
0
0
0
0
0
0
0
0
0
0
0
0
0
0
0
0
0
6.918410677e-05
1.249437966e-05
3.018819493e-06
9.444837359e-06
8.011526677e-06
7.493538225e-06
5.233424882e-06
2.819442362e-06
1.103038479e-06
2.518406754e-07
2.712935865e-08
2.344851148e-09
2.956753007e-10
5.429301579e-11
1.105145818e-11
1.511391417e-12
0
0
0
0
0
0
0
0
0
0
0
0
0
0
0
0
0
0
0
0
0
0
0
0
0
0
0
0
0
0
0
0
0
0
0
0
0
0
0
0
0
0
0
0
5.008770378e-05
9.726736674e-06
3.869054485e-06
1.263267916e-05
1.293099629e-05
9.579814667e-06
5.882196822e-06
3.104618654e-06
1.378001114e-06
4.608769788e-07
9.109463315e-08
9.734001774e-09
9.309073928e-10
1.214070999e-10
2.070827613e-11
3.177717077e-12
8.563317211e-15
0
0
0
0
0
0
0
0
0
0
0
0
0
0
0
0
0
0
0
0
0
0
0
0
0
0
0
0
0
0
0
0
0
0
0
0
0
0
0
0
0
0
0
8.459776049e-05
7.095345046e-05
4.642108936e-05
2.721164821e-05
1.746229046e-05
1.091678018e-05
6.384057327e-06
3.437320284e-06
1.673982441e-06
7.087342348e-07
2.289126656e-07
4.380065023e-08
4.626372057e-09
4.365391508e-10
5.357605872e-11
7.630233622e-12
4.800656624e-13
0
0
0
0
0
0
0
0
0
0
0
0
0
0
0
0
0
0
0
0
0
0
0
0
0
0
0
0
0
0
0
0
0
0
0
0
0
0
0
0
0
0
0
0.0001555648344
8.678538934e-05
5.05458429e-05
3.061785647e-05
1.899567037e-05
1.162363373e-05
6.843699569e-06
3.824451547e-06
2.000696904e-06
9.581928059e-07
4.010798792e-07
1.280465318e-07
2.40217451e-08
2.438924106e-09
2.170766176e-10
2.379208179e-11
2.376711879e-12
0
0
0
0
0
0
0
0
0
0
0
0
0
0
0
0
0
0
0
0
0
0
0
0
0
0
0
0
0
0
0
0
0
0
0
0
0
0
0
0
0
0
0
0.0001089707065
7.217837656e-05
4.666706982e-05
3.000151647e-05
1.912534636e-05
1.194490874e-05
7.241260102e-06
4.224777764e-06
2.347041139e-06
1.221898099e-06
5.809447393e-07
2.402980727e-07
7.531455976e-08
1.360772428e-08
1.289761715e-09
1.051859837e-10
9.557759328e-12
3.401353806e-13
0
0
0
0
0
0
0
0
0
0
0
0
0
0
0
0
0
0
0
0
0
0
0
0
0
0
0
0
0
0
0
0
0
0
0
0
0
0
0
0
0
0
8.410918797e-05
6.003970352e-05
4.147379124e-05
2.801057988e-05
1.853128477e-05
1.197637744e-05
7.531133069e-06
4.582261655e-06
2.676106309e-06
1.482607192e-06
7.654559231e-07
3.580286577e-07
1.443041937e-07
4.35108527e-08
7.357016794e-09
6.294907077e-10
4.501410479e-11
2.986580474e-12
0
0
0
0
0
0
0
0
0
0
0
0
0
0
0
0
0
0
0
0
0
0
0
0
0
0
0
0
0
0
0
0
0
0
0
0
0
0
0
0
0
0
6.706197629e-05
5.01225156e-05
3.620089613e-05
2.543991148e-05
1.745514033e-05
1.168534188e-05
7.613296653e-06
4.808438386e-06
2.926170846e-06
1.700656498e-06
9.318391449e-07
4.720808178e-07
2.144123878e-07
8.277870915e-08
2.346848637e-08
3.607670273e-09
2.684334186e-10
1.625988742e-11
3.606248922e-13
0
0
0
0
0
0
0
0
0
0
0
0
0
0
0
0
0
0
0
0
0
0
0
0
0
0
0
0
0
0
0
0
0
0
0
0
0
0
0
0
0
5.340237474e-05
4.109423318e-05
3.063551179e-05
2.237405236e-05
1.587141472e-05
1.097443069e-05
7.385804925e-06
4.820832403e-06
3.037631723e-06
1.835097258e-06
1.052465208e-06
5.648600409e-07
2.776267354e-07
1.207521264e-07
4.381807187e-08
1.138552447e-08
1.547729745e-09
1.004862635e-10
4.534310589e-12
0
0
0
0
0
0
0
0
0
0
0
0
0
0
0
0
0
0
0
0
0
0
0
0
0
0
0
0
0
0
0
0
0
0
0
0
0
0
0
0
0
4.212229533e-05
3.34220802e-05
2.580418067e-05
1.940117512e-05
1.419589447e-05
1.009652118e-05
6.973207568e-06
4.677455204e-06
3.033042393e-06
1.890741448e-06
1.124127203e-06
6.302552719e-07
3.278291487e-07
1.543783455e-07
6.329548329e-08
2.116218873e-08
4.89680488e-09
5.660144385e-10
3.041262848e-11
4.972909027e-13
0
0
0
0
0
0
0
0
0
0
0
0
0
0
0
0
0
0
0
0
0
0
0
0
0
0
0
0
0
0
0
0
0
0
0
0
0
0
0
0
3.335786021e-05
2.702575632e-05
2.13192972e-05
1.639288792e-05
1.228885038e-05
8.970606228e-06
6.359655805e-06
4.3696908e-06
2.901020571e-06
1.855483575e-06
1.135454638e-06
6.585585243e-07
3.573209364e-07
1.780219879e-07
7.920209424e-08
3.006093983e-08
9.007727188e-09
1.777620389e-09
1.620839824e-10
5.96523177e-12
0
0
0
0
0
0
0
0
0
0
0
0
0
0
0
0
0
0
0
0
0
0
0
0
0
0
0
0
0
0
0
0
0
0
0
0
0
0
0
0
2.617465441e-05
2.155060407e-05
1.729780179e-05
1.354532146e-05
1.034794054e-05
7.706199661e-06
5.584211034e-06
3.924480244e-06
2.665736818e-06
1.741771098e-06
1.090598407e-06
6.49313042e-07
3.636289949e-07
1.887076559e-07
8.883565863e-08
3.673155881e-08
1.260626687e-08
3.236449945e-09
5.121421524e-10
3.298027218e-11
2.512078268e-13
0
0
0
0
0
0
0
0
0
0
0
0
0
0
0
0
0
0
0
0
0
0
0
0
0
0
0
0
0
0
0
0
0
0
0
0
0
0
0
2.032313064e-05
1.695096621e-05
1.37976604e-05
1.096499778e-05
8.506029926e-06
6.435712924e-06
4.741588365e-06
3.39301758e-06
2.348801226e-06
1.5660306e-06
9.998898722e-07
6.072092737e-07
3.481320261e-07
1.861153037e-07
9.121515547e-08
3.998245127e-08
1.506365863e-08
4.560289326e-09
1.029132947e-09
1.300103962e-10
5.387177778e-12
0
0
0
0
0
0
0
0
0
0
0
0
0
0
0
0
0
0
0
0
0
0
0
0
0
0
0
0
0
0
0
0
0
0
0
0
0
0
0
1.55730657e-05
1.312723462e-05
1.080651672e-05
8.689607744e-06
6.82297278e-06
5.226495626e-06
3.899729455e-06
2.827772051e-06
1.985995184e-06
1.34446331e-06
8.726851117e-07
5.394562731e-07
3.146224832e-07
1.718899144e-07
8.67430327e-08
3.965273892e-08
1.59443624e-08
5.317805296e-09
1.328060675e-09
2.348119899e-10
1.972050028e-11
4.510038318e-14
0
0
0
0
0
0
0
0
0
0
0
0
0
0
0
0
0
0
0
0
0
0
0
0
0
0
0
0
0
0
0
0
0
0
0
0
0
0
1.172886434e-05
9.972393394e-06
8.283467028e-06
6.722164794e-06
5.327126128e-06
4.118474259e-06
3.101434796e-06
2.269927427e-06
1.609888873e-06
1.101896432e-06
7.238051112e-07
4.534361326e-07
2.687842707e-07
1.490912952e-07
7.681823692e-08
3.618581393e-08
1.522469993e-08
5.500868673e-09
1.524127337e-09
2.376754369e-10
2.548619341e-11
5.117937897e-13
0
0
0
0
0
0
0
0
0
0
0
0
0
0
0
0
0
0
0
0
0
0
0
0
0
0
0
0
0
0
0
0
0
0
0
0
0
0
8.637845649e-06
7.395058179e-06
6.185456991e-06
5.054244844e-06
4.032345472e-06
3.137818608e-06
2.377870938e-06
1.751091504e-06
1.249587455e-06
8.609900103e-07
5.701050363e-07
3.605223715e-07
2.161750777e-07
1.217833684e-07
6.370696486e-08
3.067703771e-08
1.334348997e-08
5.070311604e-09
1.530089498e-09
2.867948222e-10
4.082533209e-11
2.456804957e-12
0
0
0
0
0
0
0
0
0
0
0
0
0
0
0
0
0
0
0
0
0
0
0
0
0
0
0
0
0
0
0
0
0
0
0
0
0
0
6.186468479e-06
5.32493147e-06
4.477177922e-06
3.676510042e-06
2.946755149e-06
2.302878154e-06
1.752059505e-06
1.295033216e-06
9.27490272e-07
6.414595984e-07
4.266157215e-07
2.7138431e-07
1.64015101e-07
9.342845139e-08
4.963043005e-08
2.430756772e-08
1.084600908e-08
4.293257077e-09
1.42641656e-09
2.99111428e-10
1.87946495e-12
0
0
0
0
0
0
0
0
0
0
0
0
0
0
0
0
0
0
0
0
0
0
0
0
0
0
0
0
0
0
0
0
0
0
0
0
0
0
0
4.28679245e-06
3.705114828e-06
3.127116363e-06
2.576674678e-06
2.07143474e-06
1.62301114e-06
1.237541838e-06
9.164823013e-07
6.575369202e-07
4.555987585e-07
3.036905948e-07
1.938242988e-07
1.177334912e-07
6.756151881e-08
3.630628628e-08
1.804981864e-08
8.210663138e-09
3.346030941e-09
1.153440701e-09
2.549531376e-10
9.501232548e-13
0
0
0
0
0
0
0
0
0
0
0
0
0
0
0
0
0
0
0
0
0
0
0
0
0
0
0
0
0
0
0
0
0
0
0
0
0
0
0
2.861418521e-06
2.481143802e-06
2.099900541e-06
1.734250556e-06
1.396725356e-06
1.095838767e-06
8.363550752e-07
6.197559116e-07
4.448416352e-07
3.083698546e-07
2.057169904e-07
1.315005441e-07
8.012790456e-08
4.623830178e-08
2.506477673e-08
1.262794404e-08
5.833228931e-09
2.434521658e-09
8.778777446e-10
2.469101786e-10
3.554715199e-12
0
0
0
0
0
0
0
0
0
0
0
0
0
0
0
0
0
0
0
0
0
0
0
0
0
0
0
0
0
0
0
0
0
0
0
0
0
0
0
1.833343839e-06
1.593833468e-06
1.351715955e-06
1.118051084e-06
9.013561541e-07
7.075465078e-07
5.40053273e-07
4.000954354e-07
2.870578097e-07
1.989152533e-07
1.326882417e-07
8.486927623e-08
5.180305132e-08
3.000026178e-08
1.636544233e-08
8.332147187e-09
3.907834649e-09
1.658766449e-09
6.134615551e-10
1.722929704e-10
0
0
0
0
0
0
0
0
0
0
0
0
0
0
0
0
0
0
0
0
0
0
0
0
0
0
0
0
0
0
0
0
0
0
0
0
0
0
0
0
1.12424847e-06
9.795135447e-07
8.320446799e-07
6.889182899e-07
5.556624479e-07
4.361758691e-07
3.327741719e-07
2.463443047e-07
1.765794551e-07
1.222468791e-07
8.149272213e-08
5.212099934e-08
3.184505587e-08
1.84917296e-08
1.013823082e-08
5.203072498e-09
2.470209716e-09
1.061012503e-09
3.97444161e-10
1.129996269e-10
1.945529227e-11
0
0
0
0
0
0
0
0
0
0
0
0
0
0
0
0
0
0
0
0
0
0
0
0
0
0
0
0
0
0
0
0
0
0
0
0
0
0
0
6.582440518e-07
5.746104659e-07
4.887422449e-07
4.049643058e-07
3.266923152e-07
2.56363001e-07
1.954472055e-07
1.445354443e-07
1.034798572e-07
7.155580798e-08
4.765703969e-08
3.046871039e-08
1.862522042e-08
1.083511216e-08
5.96257745e-09
3.080277237e-09
1.475852007e-09
6.441334186e-10
2.419972505e-10
6.849907398e-11
5.725195924e-12
0
0
0
0
0
0
0
0
0
0
0
0
0
0
0
0
0
0
0
0
0
0
0
0
0
0
0
0
0
0
0
0
0
0
0
0
0
0
0
3.672236079e-07
3.211438477e-07
2.734722574e-07
2.267278665e-07
1.829158114e-07
1.434786857e-07
1.092981211e-07
8.073972484e-08
5.7733134e-08
3.987280737e-08
2.652892537e-08
1.695165673e-08
1.036487011e-08
6.037775079e-09
3.332506111e-09
1.729965099e-09
8.333099627e-10
3.65813513e-10
1.354760982e-10
3.61290858e-11
8.421272359e-14
0
0
0
0
0
0
0
0
0
0
0
0
0
0
0
0
0
0
0
0
0
0
0
0
0
0
0
0
0
0
0
0
0
0
0
0
0
0
0
1.948777221e-07
1.707262971e-07
1.455492007e-07
1.207397732e-07
9.741470038e-08
7.638274694e-08
5.814299206e-08
4.290758093e-08
3.064582646e-08
2.114103418e-08
1.405279137e-08
8.975011933e-09
5.488748307e-09
3.201128993e-09
1.771590357e-09
9.23527001e-10
4.476017181e-10
1.967677198e-10
7.053453318e-11
1.59666107e-11
0
0
0
0
0
0
0
0
0
0
0
0
0
0
0
0
0
0
0
0
0
0
0
0
0
0
0
0
0
0
0
0
0
0
0
0
0
0
0
0
9.8244104e-08
8.622577644e-08
7.359861277e-08
6.109363769e-08
4.929975075e-08
3.864643332e-08
2.940085418e-08
2.167904085e-08
1.546913731e-08
1.066139165e-08
7.081587132e-09
4.52116447e-09
2.765692755e-09
1.614807026e-09
8.958120453e-10
4.685940363e-10
2.279227085e-10
9.868581166e-11
3.66083593e-11
5.236685067e-12
0
0
0
0
0
0
0
0
0
0
0
0
0
0
0
0
0
0
0
0
0
0
0
0
0
0
0
0
0
0
0
0
0
0
0
0
0
0
0
0
4.700719697e-08
4.133708034e-08
3.53309166e-08
2.935199417e-08
2.36942795e-08
1.85736387e-08
1.41254495e-08
1.041003784e-08
7.423434371e-09
5.113116206e-09
3.394967361e-09
2.167450153e-09
1.326610711e-09
7.755433122e-10
4.311951584e-10
2.259083678e-10
1.095699302e-10
4.572630024e-11
1.638667958e-11
1.282494056e-12
0
0
0
0
0
0
0
0
0
0
0
0
0
0
0
0
0
0
0
0
0
0
0
0
0
0
0
0
0
0
0
0
0
0
0
0
0
0
0
0
2.133701788e-08
1.880301151e-08
1.609585444e-08
1.338596834e-08
1.081239767e-08
8.477815193e-09
6.447205074e-09
4.750875918e-09
3.38740215e-09
2.332982134e-09
1.549472006e-09
9.899625813e-10
6.068039962e-10
3.555914627e-10
1.985628289e-10
1.046079072e-10
5.115801295e-11
2.171960786e-11
7.646302815e-12
2.221005716e-12
0
0
0
0
0
0
0
0
0
0
0
0
0
0
0
0
0
0
0
0
0
0
0
0
0
0
0
0
0
0
0
0
0
0
0
0
0
0
0
0
9.18923111e-09
8.117051462e-09
6.961012908e-09
5.797004452e-09
4.687287531e-09
3.678102266e-09
2.798860313e-09
2.063474144e-09
1.47211084e-09
1.014684445e-09
6.749831945e-10
4.323123202e-10
2.66018766e-10
1.56841448e-10
8.842208339e-11
4.725032249e-11
2.339422091e-11
9.720454854e-12
1.171572026e-12
2.997536986e-13
0
0
0
0
0
0
0
0
0
0
0
0
0
0
0
0
0
0
0
0
0
0