/*--------------------------------*- C++ -*----------------------------------*\
  =========                 |
  \\      /  F ield         | OpenFOAM: The Open Source CFD Toolbox
   \\    /   O peration     | Website:  https://openfoam.org
    \\  /    A nd           | Version:  10
     \\/     M anipulation  |
\*---------------------------------------------------------------------------*/
FoamFile
{
    format      ascii;
    class       volScalarField;
    location    "0.02498436188";
    object      CH2CHO_0;
}
// * * * * * * * * * * * * * * * * * * * * * * * * * * * * * * * * * * * * * //

dimensions      [0 0 0 0 0 0 0];

internalField   nonuniform List<scalar> 
5170
(
0
0
0
0
0
0
0
0
0
0
0
0
0
0
0
0
0
0
0
0
0
0
0
0
0
0
0
0
0
0
0
0
0
0
0
0
0
0
0
0
0
0
0
0
0
0
0
0
0
0
0
0
0
0
0
0
0
0
0
0
0
0
0
0
0
0
0
0
0
0
0
0
0
0
0
0
0
0
0
0
0
0
0
0
0
0
0
0
0
0
0
0
0
0
0
0
0
0
0
4.050524992e-14
2.48476339e-22
0
0
0
0
2.548544491e-22
0
0
2.115259252e-24
0
4.604733566e-23
8.375920026e-25
0
2.911735901e-24
5.239836042e-25
1.512362134e-24
1.729804357e-23
3.666020797e-25
0
7.802294491e-23
0
0
0
1.478745776e-21
0
0
0
0
1.660746669e-19
9.462600545e-18
0
0
4.137626071e-19
1.076077954e-16
3.253156069e-15
6.472063107e-15
9.731618147e-18
1.639036918e-16
4.508230427e-15
1.090653764e-13
1.06747706e-13
5.952239925e-15
2.602720989e-15
6.984120565e-15
0
0
0
8.097009033e-16
0
0
0
0
0
0
0
0
0
0
0
0
8.416535021e-16
0
0
0
0
0
0
0
0
1.310361924e-14
1.838073855e-16
0
0
7.293036718e-16
9.720697793e-15
4.898171603e-15
0
0
9.680254443e-15
2.658683149e-14
9.761348141e-15
9.655812738e-15
1.004654364e-14
1.430063763e-14
5.472334462e-14
2.490591691e-14
9.821220854e-15
1.021916945e-14
2.588811238e-14
3.940885559e-14
1.826134389e-13
5.339986056e-14
2.51235542e-14
5.603178063e-14
3.9682556e-14
1.536390728e-11
2.848596149e-12
9.287275459e-13
1.692420224e-13
8.587483494e-15
0
0
8.202377983e-13
4.249386973e-11
1.576926708e-09
0
0
1.723030628e-11
2.500203485e-10
6.895252537e-09
0
4.003121579e-13
2.556070195e-11
5.192405477e-10
9.958069961e-09
0
2.487316612e-12
5.004049552e-11
7.498281174e-10
1.052041004e-08
0
6.307092717e-12
7.453823147e-11
9.426844038e-10
1.058546668e-08
0
1.077186077e-11
7.873099231e-11
1.207811082e-09
1.176939866e-08
9.704979143e-13
1.994815984e-11
1.211659758e-10
1.703955875e-09
1.501997881e-08
2.110628735e-12
2.39484618e-11
1.98227378e-10
2.378851692e-09
1.856865688e-08
2.698050047e-12
1.655863204e-11
3.126623532e-10
3.169672892e-09
2.15842967e-08
6.401620248e-12
3.420861348e-11
4.640628316e-10
3.987058156e-09
2.363524136e-08
2.047081275e-11
8.799521912e-11
6.932513548e-10
5.102162234e-09
2.674213933e-08
1.884840422e-11
1.233522722e-10
1.023294379e-09
6.54808285e-09
3.029093908e-08
1.114236626e-11
2.076525729e-10
1.478739589e-09
8.223066023e-09
3.315563246e-08
6.406481983e-11
3.514871823e-10
2.115561542e-09
1.033622266e-08
3.621412672e-08
1.567523417e-10
6.155290837e-10
3.079158624e-09
1.304746023e-08
3.908715181e-08
3.423671913e-10
1.074090803e-09
4.526707638e-09
1.656653008e-08
4.216675885e-08
8.093902433e-10
2.077827971e-09
7.294684342e-09
2.171170243e-08
4.568249311e-08
2.113535572e-09
4.356695205e-09
1.218077919e-08
2.945787422e-08
5.249697743e-08
5.128849059e-09
8.877635042e-09
2.020406822e-08
4.065451138e-08
5.896532169e-08
1.244424786e-08
1.787719732e-08
3.072209683e-08
4.779329136e-08
5.765907238e-08
2.322832808e-08
2.844115135e-08
3.871038126e-08
4.964599525e-08
5.569619942e-08
3.285776029e-08
3.62864768e-08
4.316038365e-08
5.189645431e-08
6.12315137e-08
3.25638196e-08
3.460208399e-08
3.893620222e-08
4.522284647e-08
5.325937787e-08
2.001527618e-08
2.065397562e-08
2.191455675e-08
2.35330655e-08
2.529353748e-08
7.109076634e-09
7.156419978e-09
7.193043576e-09
7.194540315e-09
7.058273133e-09
1.569068981e-09
1.556630191e-09
1.517319101e-09
1.44147103e-09
1.333981913e-09
2.917282326e-10
2.871012277e-10
2.745858669e-10
2.55546746e-10
2.275598764e-10
5.000593095e-11
4.913315983e-11
4.642873849e-11
4.278486346e-11
3.762012574e-11
8.541785992e-12
8.370490198e-12
7.995553896e-12
7.261830243e-12
6.33728745e-12
1.555282851e-12
1.546865674e-12
1.546801509e-12
1.421050657e-12
1.231549539e-12
8.025272241e-14
8.799541227e-14
1.11018418e-13
1.901677927e-13
2.203965944e-13
5.664205182e-14
5.644059665e-14
5.639285026e-14
5.702802147e-14
5.622156806e-14
1.953195352e-14
1.935541265e-14
1.879768515e-14
1.827987748e-14
1.753243813e-14
1.140128571e-14
1.155405373e-14
1.190335542e-14
1.249840089e-14
1.34326846e-14
1.83693619e-14
1.897138769e-14
2.034132694e-14
2.252508016e-14
2.565971051e-14
3.692317663e-14
3.844920314e-14
4.192518719e-14
4.743182448e-14
5.508490229e-14
5.890429076e-14
6.060897782e-14
6.450981019e-14
6.992044292e-14
7.69338276e-14
4.748720376e-14
4.888893583e-14
5.19622261e-14
5.677769299e-14
6.285874442e-14
2.637311539e-14
2.696816666e-14
2.818605726e-14
2.985661414e-14
3.191054557e-14
1.000085714e-14
1.030105396e-14
1.065290667e-14
1.156329001e-14
1.022281841e-14
0
0
0
0
0
0
0
0
0
0
0
0
9.718524727e-17
1.355149075e-16
2.012416933e-16
0
0
0
0
0
1.63355373e-17
0
0
0
0
0
0
0
0
0
0
0
0
0
0
4.44983967e-16
3.877909456e-16
5.92810955e-17
2.938470888e-17
5.803114995e-17
0
0
0
0
0
0
0
0
0
0
0
0
0
0
0
0
0
0
0
0
0
0
0
0
0
0
0
0
0
0
0
0
0
0
0
6.675092186e-19
9.206551311e-19
1.430682567e-18
1.926855399e-18
1.868519886e-18
0
0
0
0
0
0
0
0
0
0
0
0
0
0
0
0
0
0
0
0
6.798684148e-19
7.097388444e-19
8.195852486e-19
1.04824599e-18
1.35705004e-18
1.055409598e-18
9.70422638e-19
7.298936017e-19
3.848317009e-19
5.227681208e-19
6.30158406e-18
6.593908344e-18
7.221116014e-18
7.985468599e-18
7.6804139e-18
3.543342035e-17
3.512349244e-17
3.470016435e-17
3.451015492e-17
3.520486041e-17
3.542587334e-17
3.53658867e-17
3.544823661e-17
3.593097424e-17
3.737678297e-17
3.455164982e-17
3.461142504e-17
3.492170175e-17
3.566698881e-17
3.731775143e-17
5.156035799e-17
5.502185225e-17
6.278851253e-17
7.509113834e-17
9.171223691e-17
4.781837488e-16
4.794796609e-16
4.82560698e-16
4.884852709e-16
5.007812601e-16
8.134963722e-16
8.001138303e-16
7.681578494e-16
7.145040864e-16
6.358778316e-16
2.158225118e-16
2.10150625e-16
1.97610509e-16
1.919180556e-16
1.759609108e-16
8.137337302e-09
5.282088968e-08
6.130670914e-08
5.370943415e-08
4.815577616e-08
4.9172705e-08
5.796987064e-08
6.278675436e-08
6.220112835e-08
5.82677945e-08
5.777702355e-08
5.807317306e-08
5.705229929e-08
5.568101472e-08
5.383974496e-08
5.318849889e-08
5.32904351e-08
5.549968695e-08
5.833561116e-08
5.663007123e-08
5.657710349e-08
6.784676809e-08
5.980571984e-08
2.652628719e-08
6.945444406e-09
1.259714616e-09
2.111386116e-10
3.433736524e-11
5.656570249e-12
1.089902032e-12
2.133312847e-13
5.417882366e-14
1.705709793e-14
1.436092628e-14
2.849150714e-14
6.137228905e-14
8.24074601e-14
6.798990242e-14
3.375548484e-14
8.001350079e-15
0
0
2.631171033e-17
0
0
0
0
1.176748765e-16
0
0
0
0
0
0
0
2.563764905e-18
0
0
0
0
1.38219968e-18
1.253491289e-18
5.675335187e-18
3.626652643e-17
3.893487985e-17
3.891653091e-17
1.042113564e-16
5.133101746e-16
5.733386904e-16
1.662384292e-16
4.171023427e-09
1.268392772e-09
6.815235569e-11
8.487820695e-12
2.928762117e-12
5.167178054e-08
3.928921541e-07
2.256160157e-08
6.903209192e-10
5.323667311e-10
1.026673611e-07
1.495683198e-07
1.526466453e-08
9.312884401e-10
2.106064024e-09
1.011403712e-07
7.632405926e-08
2.940388868e-08
2.46488099e-09
1.168974095e-09
9.680684467e-08
8.30275177e-08
3.064748885e-07
3.052860243e-08
2.985110965e-09
1.01513935e-07
1.049078436e-07
4.781563905e-07
5.97559794e-08
5.922690917e-09
1.189738611e-07
1.135215907e-07
4.34443166e-07
6.56933065e-08
7.595470198e-09
1.19834124e-07
9.798978251e-08
2.85097633e-07
6.276317905e-08
8.459121809e-09
1.066691549e-07
8.578000696e-08
2.142295494e-07
1.076830523e-07
1.652575679e-08
9.398952757e-08
6.856657887e-08
1.567071745e-07
2.093629302e-07
3.348863692e-08
8.300445653e-08
6.613368271e-08
1.466542993e-07
2.80956262e-07
5.015034331e-08
7.816947634e-08
6.53387434e-08
1.442648374e-07
3.206005347e-07
6.286472111e-08
7.497829489e-08
6.39522997e-08
1.312463288e-07
3.126885644e-07
7.463578756e-08
6.597753407e-08
6.199623197e-08
1.21130755e-07
2.883123062e-07
9.543693996e-08
5.959527125e-08
5.810909021e-08
1.142482809e-07
2.673094586e-07
1.383227004e-07
5.440415541e-08
5.473098792e-08
1.095273865e-07
2.483490173e-07
1.788831784e-07
5.168629203e-08
5.37045256e-08
1.071000115e-07
2.372001103e-07
2.121905488e-07
5.080199019e-08
5.880355135e-08
1.161856639e-07
2.564599496e-07
2.167876532e-07
5.238970159e-08
6.896530713e-08
1.448714199e-07
3.179261137e-07
1.716381489e-07
5.377381894e-08
7.961807016e-08
1.828821165e-07
4.698186939e-07
7.502194684e-07
5.662210105e-08
7.406724258e-08
1.32297348e-07
2.779921398e-07
5.599074185e-07
7.687375876e-08
1.050380753e-07
1.662586312e-07
2.867995567e-07
4.574635699e-07
7.055296912e-08
8.907081411e-08
1.04478038e-07
1.06710622e-07
9.13473066e-08
2.91504466e-08
3.020150629e-08
2.719726579e-08
2.084591944e-08
1.364560269e-08
7.110883304e-09
6.37569953e-09
4.947975607e-09
3.315459865e-09
1.937544042e-09
1.215599607e-09
1.005395959e-09
7.239918681e-10
4.567940823e-10
2.549503271e-10
1.983173625e-10
1.593730815e-10
1.078072234e-10
6.826754093e-11
3.844808378e-11
3.181978085e-11
2.504299479e-11
1.78682667e-11
1.085193518e-11
6.39727318e-12
4.653942224e-12
4.246785412e-12
3.270037974e-12
1.874237061e-12
6.053180192e-13
9.1294793e-13
3.991284237e-13
5.319095349e-13
3.986692032e-13
2.168858317e-13
1.992603567e-13
1.447885698e-13
9.429878208e-14
8.839115141e-14
6.260826762e-14
5.235736893e-14
4.188772037e-14
2.968471542e-14
2.364430716e-14
1.791597635e-14
1.63744307e-14
1.440957538e-14
1.298914608e-14
1.209801952e-14
1.110890469e-14
1.576007589e-14
1.816284964e-14
2.143504493e-14
2.582387789e-14
3.070688353e-14
3.262191194e-14
4.210151438e-14
5.435948182e-14
6.550802347e-14
8.851393496e-14
6.942213105e-14
8.390500273e-14
1.012994967e-13
1.235555634e-13
1.661042909e-13
9.038689129e-14
1.057092608e-13
1.2233928e-13
1.449706954e-13
1.625301671e-13
7.592521717e-14
8.679610579e-14
8.61950019e-14
9.311210666e-14
1.059325157e-13
3.726489159e-14
3.617139291e-14
3.048844441e-14
3.23859752e-14
4.151052276e-14
4.230878753e-15
4.578205747e-16
1.269817383e-16
5.364565716e-16
1.10279943e-14
0
0
0
0
0
0
0
1.170392429e-16
0
0
0
0
0
0
0
0
0
0
0
0
0
0
0
0
0
0
0
0
0
2.528985314e-16
0
0
1.946180382e-15
1.483443016e-15
4.101855087e-16
2.20528998e-16
3.685466867e-16
3.450445858e-16
4.07824332e-17
0
0
0
0
0
0
0
0
0
0
0
0
0
0
0
0
0
0
0
0
0
0
0
0
0
0
0
0
0
0
2.582519428e-18
0
3.92836506e-19
3.573820184e-18
3.388060317e-18
0
1.505404131e-18
0
0
0
0
0
0
0
0
0
0
0
0
0
0
0
0
0
0
0
0
0
1.72158937e-18
1.10476771e-18
1.589875812e-18
1.646036349e-18
1.22668278e-18
6.865080503e-19
2.407641135e-20
2.287977813e-18
1.49709632e-18
3.996019616e-18
8.39740692e-18
1.098651397e-17
0
1.320728782e-18
0
1.849085167e-17
2.964592851e-17
3.521021594e-17
3.44755079e-17
3.575702672e-17
3.851689157e-17
4.082558091e-17
4.240954323e-17
3.799369162e-17
3.950634514e-17
4.103449183e-17
4.173515453e-17
4.119635571e-17
3.802725299e-17
3.904835391e-17
3.973387735e-17
3.996471186e-17
4.205615512e-17
1.18796572e-16
1.425808903e-16
1.692884043e-16
1.964465728e-16
2.09103343e-16
5.286535873e-16
5.26166607e-16
5.398593879e-16
4.755952424e-16
3.772048081e-16
4.974565643e-16
3.634991104e-16
2.764533619e-16
2.24354339e-16
1.762179837e-16
1.749425731e-16
1.487396655e-16
0
0
0
7.031124972e-14
0
0
0
0
0
0
0
0
0
0
0
0
0
0
0
0
0
0
0
0
0
0
0
0
0
0
0
0
0
0
0
0
0
0
0
0
0
0
0
0
0
0
0
0
0
0
0
0
0
0
0
0
0
0
0
0
0
0
0
1.223456658e-11
8.985712516e-13
0
0
0
0
0
0
0
0
0
0
0
0
0
0
0
0
0
0
0
0
0
0
0
0
0
0
0
0
0
0
0
0
0
0
0
0
0
0
0
0
0
0
0
0
0
0
0
0
0
0
0
0
0
0
0
0
0
0
9.715413463e-11
1.439143057e-15
0
0
0
0
0
0
0
0
0
0
0
0
0
0
0
0
0
0
0
0
0
0
0
0
0
0
0
0
0
0
0
0
0
0
0
0
0
0
0
0
0
0
0
0
0
0
0
0
0
0
0
0
0
0
0
0
0
0
1.069316841e-09
1.427705726e-11
2.094193871e-12
0
0
0
0
0
0
0
0
0
0
0
0
0
0
0
0
0
0
0
0
0
0
0
0
0
0
0
0
0
0
0
0
0
0
0
0
0
0
0
0
0
0
0
0
0
0
0
0
0
0
0
0
0
0
0
0
0
7.263835794e-09
2.550929013e-10
5.712227942e-13
1.124627091e-12
0
0
0
0
0
0
0
0
0
0
0
0
0
0
0
0
0
0
0
0
0
0
0
0
0
0
0
0
0
0
0
0
0
0
0
0
0
0
0
0
0
0
0
0
0
0
0
0
0
0
0
0
0
0
0
0
5.590407676e-09
2.208470702e-09
6.387655557e-11
1.858881312e-11
9.638468059e-13
0
0
0
0
0
0
0
0
0
0
0
0
0
0
0
0
0
0
0
0
0
0
0
0
0
0
0
0
0
0
0
0
0
0
0
0
0
0
0
0
0
0
0
0
0
0
0
0
0
0
0
0
0
0
0
1.689315065e-09
6.191659865e-09
5.652710272e-10
1.55575286e-11
5.746612801e-12
0
0
0
0
0
0
0
0
0
0
0
0
0
0
0
0
0
0
0
0
0
0
0
0
0
0
0
0
0
0
0
0
0
0
0
0
0
0
0
0
0
0
0
0
0
0
0
0
0
0
0
0
0
0
0
1.182733802e-09
3.931624936e-09
2.661657047e-09
1.479276412e-10
1.052925305e-11
2.733997464e-12
0
0
0
0
0
0
0
0
0
0
0
0
0
0
0
0
0
0
0
0
0
0
0
0
0
0
0
0
0
0
0
0
0
0
0
0
0
0
0
0
0
0
0
0
0
0
0
0
0
0
0
0
0
0
1.738227581e-09
2.103479877e-09
6.662278068e-09
9.852653749e-10
4.222721946e-11
1.547735008e-11
9.285049543e-13
0
0
0
0
0
0
0
0
0
0
0
0
0
0
0
0
0
0
0
0
0
0
0
0
0
0
0
0
0
0
0
0
0
0
0
0
0
0
0
0
0
0
0
0
0
0
0
0
0
0
0
0
0
4.082931799e-09
1.043824513e-09
6.11507137e-09
3.617684957e-09
2.895507188e-10
9.188048624e-12
3.761392213e-12
0
0
0
0
0
0
0
0
0
0
0
0
0
0
0
0
0
0
0
0
0
0
0
0
0
0
0
0
0
0
0
0
0
0
0
0
0
0
0
0
0
0
0
0
0
0
0
0
0
0
0
0
0
6.623775539e-09
9.399407006e-10
3.616062122e-09
1.021689037e-08
1.329577098e-09
6.266601215e-11
1.650004415e-11
1.161162061e-12
0
0
0
0
0
0
0
0
0
0
0
0
0
0
0
0
0
0
0
0
0
0
0
0
0
0
0
0
0
0
0
0
0
0
0
0
0
0
0
0
0
0
0
0
0
0
0
0
0
0
0
0
8.973867486e-09
1.113999806e-09
2.120674737e-09
1.440578686e-08
4.32088761e-09
2.806802312e-10
6.541396012e-12
3.631537714e-12
7.850909813e-14
0
0
0
0
0
0
0
0
0
0
0
0
0
0
0
0
0
0
0
0
0
0
0
0
0
0
0
0
0
0
0
0
0
0
0
0
0
0
0
0
0
0
0
0
0
0
0
0
0
0
0
1.12203882e-08
1.439465342e-09
1.246891346e-09
1.077403986e-08
1.163757768e-08
9.940204255e-10
3.410151859e-11
8.928969365e-12
6.77964023e-13
0
0
0
0
0
0
0
0
0
0
0
0
0
0
0
0
0
0
0
0
0
0
0
0
0
0
0
0
0
0
0
0
0
0
0
0
0
0
0
0
0
0
0
0
0
0
0
0
0
0
0
1.54981109e-08
2.255969663e-09
1.091295018e-09
7.104862876e-09
2.623814932e-08
3.009112863e-09
1.363098296e-10
2.685325216e-11
1.86393826e-12
2.457205787e-16
0
0
0
0
0
0
0
0
0
0
0
0
0
0
0
0
0
0
0
0
0
0
0
0
0
0
0
0
0
0
0
0
0
0
0
0
0
0
0
0
0
0
0
0
0
0
0
0
0
0
2.413136888e-08
3.699811836e-09
1.28794322e-09
6.857394536e-09
4.60988536e-08
6.675769802e-09
3.721388376e-10
1.235796695e-11
3.909752847e-12
1.090390407e-13
0
0
0
0
0
0
0
0
0
0
0
0
0
0
0
0
0
0
0
0
0
0
0
0
0
0
0
0
0
0
0
0
0
0
0
0
0
0
0
0
0
0
0
0
0
0
0
0
0
0
3.417693585e-08
5.254234809e-09
1.8907531e-09
8.859022052e-09
7.287936228e-08
1.085256953e-08
6.891141659e-10
3.020402905e-11
4.723858516e-12
1.824618127e-13
0
0
0
0
0
0
0
0
0
0
0
0
0
0
0
0
0
0
0
0
0
0
0
0
0
0
0
0
0
0
0
0
0
0
0
0
0
0
0
0
0
0
0
0
0
0
0
0
0
0
4.375331601e-08
7.923150015e-09
3.230343499e-09
1.393893244e-08
1.017268022e-07
1.199423699e-08
7.737188862e-10
4.333699294e-11
5.857941202e-12
1.9894882e-13
0
0
0
0
0
0
0
0
0
0
0
0
0
0
0
0
0
0
0
0
0
0
0
0
0
0
0
0
0
0
0
0
0
0
0
0
0
0
0
0
0
0
0
0
0
0
0
0
0
0
4.67142224e-08
1.116928653e-08
1.871261527e-08
1.243649513e-07
6.381968009e-08
6.097190401e-09
4.285300634e-10
2.518259686e-11
2.890333899e-12
5.246626324e-14
0
0
0
0
0
0
0
0
0
0
0
0
0
0
0
0
0
0
0
0
0
0
0
0
0
0
0
0
0
0
0
0
0
0
0
0
0
0
0
0
0
0
0
0
0
0
0
0
0
0
4.044125215e-08
2.310265167e-08
4.305740985e-08
2.812441517e-07
3.16727908e-08
2.406135192e-09
1.645402054e-10
2.309664639e-11
2.040074845e-12
7.651755956e-13
0
0
0
0
0
0
0
0
0
0
0
0
0
0
0
0
0
0
0
0
0
0
0
0
0
0
0
0
0
0
0
0
0
0
0
0
0
0
0
0
0
0
0
0
0
0
0
0
0
0
2.813134631e-07
6.523602905e-07
8.212116463e-07
1.130365957e-07
9.87990131e-09
7.571685104e-10
5.855758634e-11
7.881571591e-12
2.279566323e-12
8.914045743e-13
3.043392518e-13
0
0
0
0
0
0
0
0
0
0
0
0
0
0
0
0
0
0
0
0
0
0
0
0
0
0
0
0
0
0
0
0
0
0
0
0
0
0
0
0
0
0
0
0
0
0
0
0
0
8.64750229e-07
1.017040247e-06
2.026421434e-07
2.38863267e-08
2.312370854e-09
2.132159809e-10
2.219928825e-11
2.096495609e-12
1.526234919e-12
1.362028414e-12
1.008258884e-12
3.344375776e-13
0
0
0
0
0
0
0
0
0
0
0
0
0
0
0
0
0
0
0
0
0
0
0
0
0
0
0
0
0
0
0
0
0
0
0
0
0
0
0
0
0
0
0
0
0
0
0
0
4.771751045e-07
1.595583634e-07
2.937012187e-08
4.02048061e-09
4.762915609e-10
5.472503582e-11
4.47480007e-12
5.695371336e-13
0
5.786847865e-13
4.040138807e-14
7.418177989e-13
2.543615161e-13
0
0
0
0
0
0
0
0
0
0
0
0
0
0
0
0
0
0
0
0
0
0
0
0
0
0
0
0
0
0
0
0
0
0
0
0
0
0
0
0
0
0
0
0
0
0
0
5.952964436e-08
1.885525045e-08
3.922245864e-09
6.420007841e-10
9.501682846e-11
1.696595445e-11
3.117294658e-12
3.133279585e-13
1.700137095e-14
0
4.030202594e-13
1.202862979e-14
5.824617312e-13
9.322429058e-14
0
0
0
0
0
0
0
0
0
0
0
0
0
0
0
0
0
0
0
0
0
0
0
0
0
0
0
0
0
0
0
0
0
0
0
0
0
0
0
0
0
0
0
0
0
0
7.09820379e-09
2.291059964e-09
5.380278014e-10
1.048476491e-10
1.844723422e-11
1.178084512e-12
0
5.478064685e-14
1.043875382e-13
6.37646284e-15
1.067439364e-14
4.827563526e-13
1.003734159e-14
4.776986332e-13
0
0
0
0
0
0
0
0
0
0
0
0
0
0
0
0
0
0
0
0
0
0
0
0
0
0
0
0
0
0
0
0
0
0
0
0
0
0
0
0
0
0
0
0
0
0
9.036115597e-10
2.989745095e-10
7.187327113e-11
1.69188181e-11
3.590976421e-12
7.556368461e-13
1.721243357e-13
2.713141564e-14
1.386676396e-14
5.06490969e-14
0
4.204946503e-15
5.978776891e-13
8.680607445e-15
4.479293537e-13
2.734585405e-17
0
0
0
0
0
0
0
0
0
0
0
0
0
0
0
0
0
0
0
0
0
0
0
0
0
0
0
0
0
0
0
0
0
0
0
0
0
0
0
0
0
0
0
0
1.139633928e-10
4.001798937e-11
1.222010404e-11
4.220608186e-12
9.129334498e-13
1.245720874e-13
3.037234941e-14
0
0
0
7.996882983e-17
0
6.898839012e-13
7.676308957e-13
4.691772396e-13
5.53041391e-13
0
0
0
0
0
0
0
0
0
0
0
0
0
0
0
0
0
0
0
0
0
0
0
0
0
0
0
0
0
0
0
0
0
0
0
0
0
0
0
0
0
0
0
0
1.76821477e-11
6.712484033e-12
2.287515943e-12
0
7.008812496e-14
0
0
0
0
0
0
6.79613713e-15
0
3.356728516e-13
0
6.706106482e-13
8.728954688e-13
0
0
0
0
0
0
0
0
0
0
0
0
0
0
0
0
0
0
0
0
0
0
0
0
0
0
0
0
0
0
0
0
0
0
0
0
0
0
0
0
0
0
0
3.687462587e-12
1.48192373e-12
3.449458477e-13
1.20251626e-13
5.462867218e-14
1.478570565e-14
8.487268092e-15
1.550635983e-15
0
0
0
4.944655043e-14
0
1.998805144e-14
3.720894318e-13
0
6.052933783e-13
8.053042501e-13
0
0
0
0
0
0
0
0
0
0
0
0
0
0
0
0
0
0
0
0
0
0
0
0
0
0
0
0
0
0
0
0
0
0
0
0
0
0
0
0
0
0
5.352668193e-13
1.291726865e-13
8.890010147e-14
3.439301475e-14
1.932608198e-14
9.229358005e-15
5.682255355e-15
0
0
0
0
0
1.429451084e-14
0
1.875670772e-14
6.989812304e-13
3.330762629e-13
6.783455267e-13
0
0
0
0
0
0
0
0
0
0
0
0
0
0
0
0
0
0
0
0
0
0
0
0
0
0
0
0
0
0
0
0
0
0
0
0
0
0
0
0
0
0
1.332102361e-13
6.388065819e-14
3.133312297e-14
1.018297784e-15
6.168697352e-15
3.3514434e-15
0
2.094641289e-15
0
0
8.799813816e-15
0
1.851603918e-14
9.727702021e-14
0
3.617931395e-13
0
4.632841834e-13
7.011575103e-13
2.731527259e-16
0
0
0
0
0
0
0
0
0
0
0
0
0
0
0
0
0
0
0
0
0
0
0
0
0
0
0
0
0
0
0
0
0
0
0
0
0
0
0
0
4.109918542e-14
2.245309446e-14
9.483233026e-15
4.048734996e-15
3.919644036e-15
0
0
0
0
0
1.369882742e-14
1.153128879e-14
1.490544721e-14
6.630730227e-14
0
0
3.915239097e-13
0
5.598262758e-13
7.886979944e-13
1.314022969e-16
0
0
0
0
0
0
0
0
0
0
0
0
0
0
0
0
0
0
0
0
0
0
0
0
0
0
0
0
0
0
0
0
0
0
0
0
0
0
0
1.060516858e-14
9.177809362e-15
5.261597086e-15
7.645953797e-15
1.226788887e-14
2.544831314e-14
1.086002478e-13
2.71790617e-14
1.793294221e-14
1.073633819e-14
3.119501036e-14
4.754842445e-14
2.660003744e-14
7.89671177e-14
0
0
2.382461867e-13
5.993548872e-13
6.632472566e-13
7.757658206e-13
2.343284367e-15
0
0
0
0
0
0
0
0
0
0
0
0
0
0
0
0
0
0
0
0
0
0
0
0
0
0
0
0
0
0
0
0
0
0
0
0
0
0
0
1.464451647e-14
1.435496048e-14
9.790528477e-15
1.151192618e-14
3.820660386e-14
5.339181329e-14
1.59798403e-13
1.358138842e-13
7.146324909e-14
3.82203685e-14
3.066369982e-14
2.438984857e-14
0
1.494712291e-15
3.709333018e-14
0
0
4.30307145e-13
0
5.418357269e-13
7.527104739e-13
0
0
0
0
0
0
0
0
0
0
0
0
0
0
0
0
0
0
0
0
0
0
0
0
0
0
0
0
0
0
0
0
0
0
0
0
0
0
0
4.343529827e-14
6.441283306e-14
7.686475367e-14
1.008520809e-13
1.503624512e-13
1.886802534e-13
1.775546258e-13
2.609606665e-13
1.122623662e-13
8.290677687e-14
4.870212363e-14
3.788034441e-14
3.192968592e-14
3.009569243e-14
1.507322135e-13
0
2.60547698e-13
7.736569235e-13
1.299908733e-12
1.269003548e-12
1.284468431e-12
9.861672296e-13
2.696402288e-16
0
0
0
0
0
0
0
0
0
0
0
0
0
0
0
0
0
0
0
0
0
0
0
0
0
0
0
0
0
0
0
0
0
0
0
0
0
1.244064508e-13
1.785774241e-13
1.71956948e-13
1.764351386e-13
2.135004339e-13
2.39313615e-13
2.454647004e-13
2.922676402e-13
1.382848849e-13
1.040129721e-13
6.479946247e-14
5.504243421e-14
5.622215422e-14
2.898527406e-14
8.924017927e-14
1.843491549e-13
5.034444795e-14
2.541970645e-13
7.704902728e-13
0
7.506847922e-13
9.051660196e-13
7.103019555e-15
0
0
0
0
0
0
0
0
0
0
0
0
0
0
0
0
0
0
0
0
0
0
0
0
0
0
0
0
0
0
0
0
0
0
0
0
0
2.383319221e-13
2.711517591e-13
2.502253967e-13
2.007356906e-13
1.863473385e-13
1.7789529e-13
1.938661955e-13
2.680927437e-13
1.466856871e-13
1.022353148e-13
6.204847246e-14
5.490142445e-14
7.017814335e-14
3.370524304e-14
6.945543005e-14
2.097257269e-13
0
3.185837997e-13
8.748007147e-13
1.057766786e-12
7.754471824e-13
1.003757607e-12
8.885112778e-13
6.22592819e-16
0
0
0
0
0
0
0
0
0
0
0
0
0
0
0
0
0
0
0
0
0
0
0
0
0
0
0
0
0
0
0
0
0
0
0
0
2.005371284e-13
2.214932196e-13
1.664897682e-13
1.283611486e-13
1.161572773e-13
9.712966146e-14
1.158042396e-13
2.030937787e-13
9.831586859e-14
6.708405764e-14
4.047384488e-14
3.31718954e-14
3.906875926e-14
2.110995594e-14
2.181520704e-14
9.439358434e-14
0
1.465270716e-13
4.059067367e-13
8.533670103e-13
0
7.94824982e-13
9.106536281e-13
3.334587274e-14
0
0
0
0
0
0
0
0
0
0
0
0
0
0
0
0
0
0
0
0
0
0
0
0
0
0
0
0
0
0
0
0
0
0
0
0
1.359906521e-13
1.493340754e-13
8.878641971e-14
5.248173737e-14
4.356642673e-14
2.697556694e-14
4.997822145e-14
1.436200089e-13
5.031302052e-14
3.054102617e-14
1.351104599e-14
7.102578121e-15
1.14243497e-14
6.149479636e-17
0
6.983378061e-14
2.576070519e-13
1.21478727e-13
3.580110741e-13
7.650150092e-13
8.880612561e-13
0
8.463579965e-13
8.483242291e-13
3.269263966e-15
0
0
0
0
0
0
0
0
0
0
0
0
0
0
0
0
0
0
0
0
0
0
0
0
0
0
0
0
0
0
0
0
0
0
0
6.678382444e-14
4.509178222e-14
1.632114111e-14
7.219737112e-16
5.970084621e-15
0
0
0
0
5.510485343e-15
8.78473681e-17
7.080099466e-16
7.509784815e-15
1.371852399e-14
0
4.490641388e-14
1.879032287e-13
0
1.740681003e-13
4.104512616e-13
8.569312483e-13
0
9.115962347e-13
1.27000312e-12
9.387349314e-13
8.631374019e-16
0
0
0
0
0
0
0
0
0
0
0
0
0
0
0
0
0
0
0
0
0
0
0
0
0
0
0
0
0
0
0
0
0
0
8.504657878e-15
1.995919256e-15
0
0
0
0
0
0
0
3.679406655e-15
0
0
1.931598826e-15
1.535944897e-14
6.994410279e-15
1.992834935e-14
8.06594189e-14
0
1.037266083e-13
3.765281606e-13
1.060437698e-12
9.146437956e-13
0
9.954874942e-13
1.034493568e-12
3.595186968e-14
0
0
0
0
0
0
0
0
0
0
0
0
0
0
0
0
0
0
0
0
0
0
0
0
0
0
0
0
0
0
0
0
0
0
0
0
0
1.343645536e-15
0
0
0
0
0
3.601631863e-15
0
0
9.71344622e-16
1.317553062e-14
5.27173004e-17
0
6.07971167e-14
2.381559598e-13
1.913977298e-13
2.673278237e-13
4.602310013e-13
8.914539799e-13
0
1.002926977e-12
1.320952674e-12
1.024199969e-12
5.305240806e-15
0
0
0
0
0
0
0
0
0
0
0
0
0
0
0
0
0
0
0
0
0
0
0
0
0
0
0
0
0
0
0
0
0
0
0
0
0
0
0
0
0
7.429067585e-18
3.777020906e-15
0
0
7.681031653e-16
1.236206514e-14
1.482204739e-16
0
5.216446827e-14
2.293681769e-13
0
2.133288152e-13
4.653557363e-13
1.045059146e-12
6.233748607e-13
0
9.32864092e-13
9.767486965e-13
2.80245014e-14
0
0
0
0
0
0
0
0
0
0
0
0
0
0
0
0
0
0
0
0
0
0
0
0
0
0
0
0
0
0
0
0
0
0
0
4.397557213e-16
0
0
0
1.219079005e-14
0
2.66151058e-16
4.094698748e-15
1.282897978e-16
0
4.666748798e-16
1.14208877e-14
0
0
1.435769253e-14
7.971329972e-14
0
9.780574307e-14
2.532404176e-13
4.420357603e-13
8.540677251e-13
0
9.242982907e-13
1.272750204e-12
1.013122471e-12
7.116474099e-15
0
0
0
0
0
0
0
0
0
0
0
0
0
0
0
0
0
0
0
0
0
0
0
0
0
0
0
0
0
0
0
0
0
4.17504678e-16
0
0
0
0
0
0
2.437545833e-16
4.102977522e-15
1.456982525e-16
0
0
3.670487546e-15
0
0
0
5.008182874e-14
2.117480089e-13
1.271018874e-13
1.643745526e-13
3.114651358e-13
7.692990767e-13
0
6.222724265e-13
1.054101781e-12
1.007640219e-12
4.368266576e-14
0
0
0
0
0
0
0
0
0
0
0
0
0
0
0
0
0
0
0
0
0
0
0
0
0
0
0
0
0
0
0
0
3.749047443e-16
1.468454619e-16
0
0
0
0
0
0
3.571626026e-16
4.237158089e-15
5.279199861e-16
0
0
2.250098103e-15
0
0
0
4.239796619e-14
2.109604173e-13
6.930465928e-14
6.047235224e-14
2.500655888e-13
4.631408438e-13
7.176640975e-13
0
9.321901317e-13
1.261746293e-12
9.919286082e-13
6.602395581e-15
0
0
0
0
0
0
0
0
0
0
0
0
0
0
0
0
0
0
0
0
0
0
0
0
0
0
0
0
0
0
0
3.672500508e-17
0
0
0
0
0
0
0
6.437576533e-16
4.238881463e-15
5.589512714e-16
0
4.024013012e-16
6.294545126e-15
1.482472755e-14
2.118458587e-16
0
1.238409772e-14
1.057738285e-13
5.512157024e-17
5.437929896e-14
1.404078803e-13
3.234894619e-13
7.772522867e-13
0
8.106006141e-13
1.194266005e-12
1.05493004e-12
5.14955751e-14
0
0
0
0
0
0
0
0
0
0
0
0
0
0
0
0
0
0
0
0
0
0
0
0
0
0
0
0
0
0
0
0
0
0
0
0
0
0
2.729299823e-17
1.250314259e-15
4.339779851e-15
5.854365289e-16
0
1.798685676e-15
1.049440201e-14
2.047040321e-14
3.35974834e-15
0
0
0
0
2.465563198e-14
1.011368965e-13
2.755968457e-13
7.569207435e-13
2.675986643e-14
0
9.400505595e-13
1.211395771e-12
7.405127864e-13
1.451685574e-16
0
0
0
0
0
0
0
0
0
0
0
0
0
0
0
0
0
0
0
0
0
0
0
0
0
0
0
0
0
0
0
0
0
0
0
0
0
2.940456401e-16
2.542738617e-15
3.524941544e-15
5.266741013e-16
0
4.092643947e-15
1.320755672e-14
2.327939361e-14
6.139147699e-15
8.919027581e-16
0
1.185803503e-16
1.016586367e-13
6.429367519e-15
2.689725293e-14
2.048713076e-13
3.225433407e-13
7.049151585e-13
0
8.524172986e-13
1.23249343e-12
1.050670865e-12
4.426416162e-14
0
0
0
0
0
0
0
0
0
0
0
0
0
0
0
0
0
0
0
0
0
0
0
0
0
0
0
0
0
0
0
0
0
0
0
0
2.034190468e-17
6.696177716e-16
4.111157756e-15
7.182281426e-16
1.270683533e-16
2.321877376e-16
5.997297697e-15
1.511842017e-14
2.583070645e-14
1.00333389e-14
5.72864104e-15
0
2.33671808e-14
1.640871923e-13
3.982045166e-15
5.655691971e-14
1.502738326e-13
3.358694374e-13
8.130407528e-13
2.642318618e-14
0
8.54402449e-13
9.472324385e-13
7.896665327e-14
0
0
0
0
0
0
0
0
0
0
0
0
0
0
0
0
0
0
0
0
0
0
0
0
0
0
0
0
0
0
0
0
0
0
0
0
4.1031156e-17
6.694517942e-16
4.128833334e-15
6.220568372e-16
8.722237992e-17
8.820480947e-18
4.833159821e-15
1.342994627e-14
2.374170679e-14
8.420670634e-15
4.982347168e-15
0
2.394803126e-14
1.128483956e-13
0
2.295903806e-14
9.82679248e-14
2.584356147e-13
4.509419724e-13
1.498337855e-14
0
8.834730736e-13
1.231425085e-12
9.840968576e-13
2.683118749e-14
0
0
0
0
0
0
0
0
0
0
0
0
0
0
0
0
0
0
0
0
0
0
0
0
0
0
0
0
0
0
0
0
0
0
0
1.179740738e-19
1.068274526e-16
1.083127827e-15
9.684951901e-17
0
0
3.051938511e-15
1.101228404e-14
2.096631811e-14
5.781318373e-15
3.023985237e-15
0
0
0
0
0
1.524367296e-14
1.943435468e-13
3.174320791e-13
7.210055796e-13
0
7.041502708e-13
1.111332325e-12
1.024508195e-12
8.020906506e-14
0
0
0
0
0
0
0
0
0
0
0
0
0
0
0
0
0
0
0
0
0
0
0
0
0
0
0
0
0
0
0
0
0
0
3.999375702e-18
1.203297306e-16
6.974999117e-16
0
7.191042388e-18
0
0
0
4.649791626e-15
1.81485758e-14
2.558511987e-16
0
0
0
0
0
0
4.099441905e-14
1.307656528e-13
3.143894013e-13
8.007194718e-13
2.713275077e-14
0
1.028919158e-12
1.328826863e-12
1.021145875e-12
3.285992913e-14
0
0
0
0
0
0
0
0
0
0
0
0
0
0
0
0
0
0
0
0
0
0
0
0
0
0
0
0
0
0
0
0
0
1.542851387e-18
9.937833502e-17
1.013627297e-15
1.117796981e-16
1.363462665e-17
0
0
0
1.010691965e-15
1.505059959e-14
1.505713442e-16
6.592559132e-17
0
0
0
3.82245182e-14
0
8.138808818e-15
7.645726944e-14
2.53030306e-13
4.375149923e-13
2.209102552e-14
0
9.386330331e-13
1.302056297e-12
1.108563843e-12
9.429685162e-14
0
0
0
0
0
0
0
0
0
0
0
0
0
0
0
0
0
0
0
0
0
0
0
0
0
0
0
0
0
0
0
0
0
0
0
0
1.488767872e-17
1.066007192e-17
0
0
0
2.809367592e-16
3.698560975e-15
0
1.899449456e-16
0
0
0
1.592798669e-14
0
3.420574737e-15
6.440265919e-14
2.300713347e-13
3.274590411e-13
6.270204919e-13
2.058718814e-14
0
1.002973204e-12
1.253327297e-12
8.058596473e-13
3.455867111e-15
0
0
0
0
0
0
0
0
0
0
0
0
0
0
0
0
0
0
0
0
0
0
0
0
0
0
0
0
0
0
0
0
0
0
8.719696225e-18
1.196709888e-17
0
0
0
0
2.433652048e-16
3.524858688e-15
7.166576358e-18
3.214979082e-16
0
0
0
0
0
0
4.173117723e-14
1.509524436e-13
3.194430352e-13
7.997382393e-13
3.786107721e-14
0
9.37109652e-13
1.32554482e-12
1.106080272e-12
7.529257614e-14
0
0
0
0
0
0
0
0
0
0
0
0
0
0
0
0
0
0
0
0
0
0
0
0
0
0
0
0
0
0
0
0
7.108820861e-18
0
2.227255789e-17
1.268029577e-17
0
9.927497941e-18
0
0
0
2.171289234e-16
0
2.606812406e-16
0
0
0
0
0
0
4.732951732e-15
5.67839833e-14
1.921394649e-13
2.630906883e-13
9.150444714e-15
0
7.954933741e-13
1.189333004e-12
1.061014029e-12
1.011629162e-13
0
0
0
0
0
0
0
0
0
0
0
0
0
0
0
0
0
0
0
0
0
0
0
0
0
0
0
0
0
0
9.978474147e-19
0
0
2.016043722e-17
2.78281921e-17
1.382690835e-17
0
0
0
0
0
0
1.055646938e-16
2.901138987e-16
0
0
0
0
0
0
0
4.038829342e-14
1.586524556e-13
1.684600351e-13
4.06567534e-13
0
0
9.555659941e-13
1.281965907e-12
1.002926839e-12
3.977026939e-14
0
0
0
0
0
0
0
0
0
0
0
0
0
0
0
0
0
0
0
0
0
0
0
0
0
0
0
0
2.834331065e-18
0
0
1.616153393e-17
3.097418419e-17
2.533004217e-17
5.631047642e-18
0
0
0
0
0
0
0
3.303771537e-16
0
0
0
0
0
0
0
0
1.563512631e-13
2.819508747e-13
7.547896516e-13
1.820374516e-14
0
8.668927603e-13
1.25841013e-12
1.091497308e-12
9.715234838e-14
0
0
0
0
0
0
0
0
0
0
0
0
0
0
0
0
0
0
0
0
0
0
0
0
0
0
2.943573694e-18
1.66448327e-18
1.66470696e-18
1.147116203e-17
0
2.554030521e-17
2.936572726e-17
1.927537152e-17
9.076825438e-19
1.396606174e-17
0
0
0
0
0
1.672008871e-16
3.610066371e-16
0
0
0
0
0
0
0
7.690379549e-14
9.22556141e-14
2.432726592e-13
4.242786681e-13
1.924386735e-14
0
6.891125101e-13
1.186487145e-12
1.29674649e-12
7.617456981e-13
2.653252389e-15
0
0
0
0
0
0
0
0
0
0
0
0
0
0
0
0
0
0
0
0
0
0
0
0
0
0
0
0
1.64138436e-17
3.1900655e-17
3.437642823e-17
3.018902453e-17
1.86680765e-17
0
0
0
0
0
0
0
3.152292984e-16
4.213463161e-16
0
0
0
0
0
0
0
0
3.362382255e-14
1.262891389e-13
8.077673289e-14
0
0
0
9.767868894e-13
1.354965454e-12
1.115801036e-12
8.354545751e-14
0
0
0
0
0
0
0
0
0
0
0
0
0
0
0
0
0
0
0
0
0
0
0
0
0
5.201288253e-18
0
2.146148373e-17
3.446242597e-17
3.825925668e-17
3.625127652e-17
2.643029687e-17
2.163594542e-17
9.252840308e-17
0
0
0
0
1.07127016e-15
4.071666576e-16
5.432395758e-16
4.706118883e-16
0
0
0
0
0
0
0
0
4.0478147e-14
1.576633653e-13
1.757301452e-13
4.962993397e-13
0
0
9.125426945e-13
1.315919676e-12
1.134052036e-12
1.258287541e-13
0
0
0
0
0
0
0
0
0
0
0
0
0
0
0
0
0
0
0
0
0
0
0
0
0