/*--------------------------------*- C++ -*----------------------------------*\
  =========                 |
  \\      /  F ield         | OpenFOAM: The Open Source CFD Toolbox
   \\    /   O peration     | Website:  https://openfoam.org
    \\  /    A nd           | Version:  10
     \\/     M anipulation  |
\*---------------------------------------------------------------------------*/
FoamFile
{
    format      ascii;
    class       volScalarField;
    location    "0.02498436188";
    object      CH2OH_0;
}
// * * * * * * * * * * * * * * * * * * * * * * * * * * * * * * * * * * * * * //

dimensions      [0 0 0 0 0 0 0];

internalField   nonuniform List<scalar> 
5170
(
0
0
0
0
0
0
0
0
0
0
0
0
0
0
0
0
0
0
0
0
0
0
0
0
0
0
0
0
0
0
0
0
0
0
0
0
0
0
0
0
0
0
0
0
0
0
0
0
0
0
0
0
0
0
0
0
0
0
0
0
0
0
0
0
0
0
0
0
0
0
0
0
0
0
0
0
0
0
0
0
0
0
0
0
0
0
0
0
0
0
0
0
0
0
0
0
0
0
0
0
3.009119936e-18
2.992669924e-18
3.057534742e-18
2.926266736e-18
2.74946289e-18
1.010198675e-18
1.029233124e-18
1.050321034e-18
9.602464464e-19
6.899936208e-19
2.914357699e-19
4.086176839e-19
3.686686241e-19
2.654610241e-19
1.741894458e-19
7.137978224e-20
2.09378788e-19
1.187392908e-19
8.344178346e-20
6.718465642e-20
0
0
1.963932884e-20
0
0
0
0
0
3.528627706e-16
0
0
0
0
9.215793768e-15
3.152734745e-12
1.577451735e-12
5.433626315e-14
5.7835435e-14
1.367054152e-12
0
0
1.374450724e-12
4.002897157e-13
2.807318191e-12
0
0
7.855633536e-11
0
0
0
1.289907597e-12
4.371964639e-11
0
4.245291663e-13
1.285456159e-13
2.266113054e-13
0
0
0
1.411381673e-12
5.003168959e-14
0
0
2.152530772e-13
9.982575018e-12
2.512316536e-12
2.051825411e-13
5.172404154e-14
4.053383651e-12
2.084909597e-11
1.03961112e-11
1.988432576e-12
1.959610499e-12
1.056070178e-11
1.490714186e-11
1.069943454e-11
8.975988147e-12
8.781975491e-12
1.252236464e-11
1.624616395e-11
8.639301118e-12
1.749012117e-11
1.741369617e-11
1.241036136e-11
2.59592984e-11
1.145847639e-11
1.34460295e-11
1.395224894e-11
1.475432228e-11
1.789302391e-11
2.535346585e-11
1.312183164e-11
1.084103495e-11
2.350320923e-11
1.635878073e-11
2.242258174e-10
5.075757994e-10
7.911821231e-11
1.67361356e-11
1.365643987e-12
0
0
0
5.677567084e-14
2.590732649e-11
0
0
3.470337903e-13
5.264941416e-12
1.655413872e-10
0
0
3.342264307e-13
7.518218378e-12
1.474492842e-10
0
3.578130069e-14
9.220704355e-13
1.532855594e-11
2.660311205e-10
0
1.622762934e-13
2.094251074e-12
2.997446079e-11
4.286031117e-10
6.938601585e-15
3.237751889e-13
2.406477557e-12
3.813403451e-11
4.206712534e-10
4.567406553e-14
5.41527126e-13
2.874222828e-12
3.822510204e-11
3.353738964e-10
6.866295827e-14
4.977893795e-13
3.026258812e-12
3.303059897e-11
2.482005281e-10
3.340382738e-14
5.419252055e-14
3.670104479e-12
3.596068294e-11
2.611714835e-10
5.635222478e-14
3.638524205e-13
5.307301563e-12
4.728966571e-11
3.231310206e-10
2.134501214e-13
1.050903061e-12
7.918125479e-12
6.199126061e-11
3.857109607e-10
1.873111445e-13
1.201847696e-12
9.460585027e-12
6.23964417e-11
3.343812857e-10
0
1.429237238e-12
9.588118156e-12
5.376029366e-11
2.528833511e-10
3.373936541e-13
1.927479465e-12
1.160925279e-11
6.264421363e-11
2.996147262e-10
7.139119939e-13
2.828963096e-12
1.503695659e-11
7.514270428e-11
3.372692669e-10
1.154406321e-12
3.799882889e-12
1.764756969e-11
7.928937142e-11
3.246356546e-10
1.847390618e-12
5.371223722e-12
2.220732381e-11
8.232160492e-11
3.103362008e-10
3.207340468e-12
8.017168293e-12
2.929167641e-11
9.094954835e-11
3.31991775e-10
3.659055419e-12
1.092739842e-11
5.001372145e-11
1.738293128e-10
6.468473412e-10
1.138585019e-11
2.41837513e-11
7.422598162e-11
2.389388951e-10
7.621993593e-10
1.912096911e-11
3.261292276e-11
7.676829467e-11
1.954882174e-10
4.948856042e-10
2.73410178e-11
3.672727542e-11
6.259902447e-11
1.182435267e-10
2.297793754e-10
2.424061003e-11
2.818637225e-11
3.787383253e-11
5.544878165e-11
8.460924389e-11
1.257019565e-11
1.364443406e-11
1.599221673e-11
1.932931186e-11
2.42937649e-11
4.19489687e-12
4.334893809e-12
4.600925827e-12
5.049460409e-12
5.540476612e-12
1.054410246e-12
1.072019907e-12
1.099552489e-12
1.113914549e-12
1.120977055e-12
2.901784093e-13
2.90600811e-13
2.883613752e-13
2.81677403e-13
2.722853354e-13
9.06231967e-14
8.996976151e-14
8.804760226e-14
8.482403592e-14
8.043657845e-14
3.160970866e-14
3.133355303e-14
3.059678609e-14
2.94021898e-14
2.779618194e-14
1.212899437e-14
1.205894117e-14
1.190407428e-14
1.146950596e-14
1.083807159e-14
4.703977708e-15
4.680281664e-15
4.627279861e-15
4.600947342e-15
4.482277565e-15
2.355540496e-15
2.339101089e-15
2.301104949e-15
2.244554756e-15
2.171042937e-15
1.337041577e-15
1.331168602e-15
1.317383846e-15
1.298366111e-15
1.274577744e-15
1.010996023e-15
1.011066931e-15
1.011132057e-15
1.011362503e-15
1.011865874e-15
1.030709725e-15
1.036439575e-15
1.049323942e-15
1.068637762e-15
1.094164664e-15
1.275665967e-15
1.284980566e-15
1.305737365e-15
1.336858636e-15
1.37697782e-15
1.563879378e-15
1.579200041e-15
1.612858461e-15
1.665902358e-15
1.736870566e-15
1.75039112e-15
1.772365404e-15
1.820775588e-15
1.893294788e-15
1.990424869e-15
1.669217625e-15
1.695050667e-15
1.751679149e-15
1.837330562e-15
1.952383598e-15
1.24954545e-15
1.271289099e-15
1.318639181e-15
1.386874109e-15
1.482320433e-15
6.860558644e-16
7.017984772e-16
7.356425336e-16
7.859154933e-16
8.520534744e-16
1.808126392e-16
1.911074851e-16
2.132519866e-16
2.465278969e-16
2.909787396e-16
5.688392949e-17
7.132126459e-17
7.864279083e-17
8.650682612e-17
9.348453926e-17
0
0
0
0
0
0
0
0
0
0
0
0
0
0
0
0
0
0
0
0
1.342806941e-17
1.330977168e-17
1.424571971e-17
1.339563574e-17
1.230973929e-17
2.725319518e-17
2.692032293e-17
2.605264775e-17
2.445016039e-17
2.191196422e-17
1.260157247e-17
1.242450439e-17
1.207932473e-17
1.135629326e-17
1.023486543e-17
0
0
0
0
0
1.310366592e-16
1.319238259e-16
1.379213681e-16
1.333837006e-16
1.249238195e-16
2.907714445e-16
2.860803176e-16
2.761401422e-16
2.613642473e-16
2.423913301e-16
3.965940726e-16
3.896797497e-16
3.748116046e-16
3.527541491e-16
3.239424074e-16
4.224518426e-16
4.146192422e-16
3.980867309e-16
3.743124424e-16
3.445909586e-16
5.056289873e-16
4.968526037e-16
4.782623809e-16
4.513045585e-16
4.173962772e-16
6.249360494e-16
6.13938032e-16
5.906716359e-16
5.570343163e-16
5.146258592e-16
8.547768463e-16
8.407614963e-16
8.110520884e-16
7.679336096e-16
7.132403594e-16
1.347863992e-15
1.32810013e-15
1.28595013e-15
1.224001217e-15
1.14391447e-15
2.0588023e-15
2.030411891e-15
1.970070417e-15
1.882465092e-15
1.772890537e-15
2.838012803e-15
2.815918374e-15
2.769774794e-15
2.703903955e-15
2.622065015e-15
3.684525571e-15
3.669415487e-15
3.63880646e-15
3.596726331e-15
3.547174225e-15
3.728495932e-15
3.714418429e-15
3.686389867e-15
3.648524175e-15
3.597201851e-15
3.782969813e-15
3.76382886e-15
3.723098389e-15
3.663185093e-15
3.583270311e-15
4.542340353e-15
4.502794024e-15
4.418484874e-15
4.294501913e-15
4.131896746e-15
6.482506715e-15
6.42477832e-15
6.302019503e-15
6.121520604e-15
5.884263526e-15
8.758650198e-15
8.680469658e-15
8.520220666e-15
8.297860163e-15
8.026275926e-15
1.12770979e-14
1.116737963e-14
1.093240752e-14
1.058601591e-14
1.013910776e-14
1.167810573e-14
1.157681362e-14
1.136302652e-14
1.105270883e-14
1.066612189e-14
1.366745893e-14
1.361108607e-14
1.34989408e-14
1.334939605e-14
1.318633075e-14
2.234802777e-10
1.836719902e-09
1.07120183e-09
1.985258555e-09
2.764697371e-09
2.252952586e-09
1.515695324e-09
1.024437613e-09
1.105934575e-09
1.306716641e-09
1.452392747e-09
1.109601446e-09
7.6124079e-10
9.554368164e-10
1.005354674e-09
9.091773603e-10
7.774771135e-10
1.011070547e-09
1.750769695e-09
1.819019261e-09
9.709681618e-10
3.722854984e-10
1.157868342e-10
2.899629177e-11
6.002152493e-12
1.137041098e-12
2.66620702e-13
7.759772727e-14
2.657890531e-14
1.036828022e-14
4.346278972e-15
2.119264344e-15
1.258835837e-15
1.012212342e-15
1.11335025e-15
1.406057755e-15
1.79286934e-15
2.067320874e-15
2.039816955e-15
1.562992192e-15
9.078087018e-16
3.286209849e-16
1.027850822e-16
0
0
0
0
1.203901447e-17
2.005575383e-17
9.257655254e-18
0
1.178805637e-16
2.273050332e-16
3.002513234e-16
3.213180007e-16
3.898708817e-16
4.806371064e-16
6.691114235e-16
1.077668549e-15
1.686651466e-15
2.557497534e-15
3.508102487e-15
3.428753969e-15
3.510980258e-15
3.993414404e-15
5.67986373e-15
7.806982931e-15
9.77197418e-15
1.035526105e-14
1.306391999e-14
3.873604745e-10
4.929942514e-10
5.485060614e-11
2.740511676e-10
1.302787913e-11
1.009598011e-08
1.657318922e-07
9.524724428e-09
3.028352472e-10
8.309915676e-11
4.393129231e-09
3.691502877e-08
8.772400641e-09
7.309511786e-10
3.859681009e-10
9.405043547e-09
1.208516391e-07
1.326368097e-06
9.950281907e-08
5.798640503e-09
1.184400693e-08
1.309838773e-07
1.231842315e-06
1.27228222e-07
9.073328235e-09
8.632410051e-09
7.745388412e-08
5.667457881e-07
7.840598596e-08
7.539761017e-09
5.234705691e-09
4.028217235e-08
2.487749069e-07
4.317248751e-08
5.467008361e-09
3.401277855e-09
2.494600427e-08
1.562176646e-07
4.191604219e-07
5.245818622e-08
3.757799995e-09
3.159010159e-08
2.20541925e-07
1.37361907e-06
1.992083493e-07
4.296567228e-09
3.135381276e-08
2.049242911e-07
1.149852383e-06
1.926446143e-07
4.542255622e-09
2.556756978e-08
1.505156208e-07
7.635815735e-07
1.452648227e-07
3.169501458e-09
1.925257388e-08
1.056575161e-07
5.065089689e-07
1.896734068e-07
2.043377785e-09
1.658302238e-08
8.604624974e-08
4.061069407e-07
9.935293014e-07
2.716939013e-09
1.701079943e-08
7.923216047e-08
3.707406023e-07
1.161172365e-06
2.642865133e-09
1.476434277e-08
6.920299204e-08
3.0887399e-07
9.920311503e-07
2.363760067e-09
1.194699425e-08
6.038279572e-08
2.524090118e-07
8.054822316e-07
1.878824863e-09
9.096126821e-09
5.126444874e-08
2.140988036e-07
6.820786207e-07
2.542732487e-09
1.259726503e-08
5.741241905e-08
2.311848925e-07
7.348834914e-07
4.271689802e-09
2.060519385e-08
9.107916824e-08
3.654140505e-07
1.174081334e-06
4.289124856e-09
1.936661214e-08
8.527077023e-08
3.879414446e-07
1.788849033e-06
1.967683462e-09
6.311646959e-09
1.85657483e-08
5.142632895e-08
1.252066849e-07
6.484816373e-10
1.524574663e-09
3.203308786e-09
6.004369325e-09
9.336149298e-09
1.743380103e-10
3.113226251e-10
4.946090818e-10
6.883648072e-10
7.834997715e-10
3.812420672e-11
5.358436813e-11
6.794778629e-11
7.676377164e-11
7.247253303e-11
7.166892414e-12
8.316527934e-12
8.885953306e-12
8.605306444e-12
7.195935027e-12
1.21872537e-12
1.234783625e-12
1.144469835e-12
9.683642936e-13
7.345364875e-13
2.691831853e-13
2.519374212e-13
2.155330607e-13
1.717930192e-13
1.26189702e-13
7.595511565e-14
6.848560992e-14
5.809314158e-14
4.511884265e-14
3.414588248e-14
2.502310592e-14
2.331792466e-14
2.00952097e-14
1.557733693e-14
1.071862934e-14
9.889325922e-15
8.314929849e-15
7.564325244e-15
6.36893067e-15
4.996304777e-15
4.206877391e-15
3.793324145e-15
3.288531552e-15
2.889539412e-15
2.446597155e-15
2.069575403e-15
1.925728827e-15
1.737033318e-15
1.560754968e-15
1.400683116e-15
1.242315689e-15
1.199440696e-15
1.154245342e-15
1.111697127e-15
1.080362262e-15
1.01116276e-15
1.02455602e-15
1.051625128e-15
1.092255899e-15
1.146212651e-15
1.134576621e-15
1.191541431e-15
1.271755025e-15
1.373761994e-15
1.523395409e-15
1.438278452e-15
1.537353986e-15
1.687523459e-15
1.876912006e-15
2.088873367e-15
1.865511972e-15
2.03294351e-15
2.255023615e-15
2.521838197e-15
2.866565973e-15
2.175643615e-15
2.408251497e-15
2.73778523e-15
3.057156755e-15
3.356189014e-15
2.167501094e-15
2.420677373e-15
2.709460183e-15
2.98587868e-15
3.239568138e-15
1.691977427e-15
1.902783664e-15
2.114826098e-15
2.313509875e-15
2.505087133e-15
1.001959096e-15
1.16148659e-15
1.326205933e-15
1.522320187e-15
1.683143102e-15
3.970469964e-16
5.42796222e-16
6.412367913e-16
7.190494144e-16
7.80955178e-16
1.184980165e-16
1.451080773e-16
1.649709161e-16
1.762819233e-16
1.833295555e-16
0
0
0
1.181415754e-18
3.773412682e-18
0
0
0
0
0
0
0
0
0
0
0
0
3.945319013e-19
2.39043511e-18
1.011118518e-17
1.207696652e-17
1.826753212e-17
1.748757094e-17
1.342734579e-17
7.032508681e-18
1.89971407e-17
1.553882955e-17
1.178387775e-17
5.842659542e-18
0
9.307932429e-18
0
0
0
7.319378018e-18
0
7.807958563e-18
0
1.656448004e-17
1.953032692e-17
1.06389818e-16
8.819773127e-17
7.0703585e-17
5.455734179e-17
3.950446448e-17
2.033818104e-16
1.640135788e-16
1.24452009e-16
8.524776805e-17
4.478573484e-17
2.621591666e-16
1.926162414e-16
1.345573268e-16
8.832294134e-17
5.366346255e-17
2.836695047e-16
2.233232093e-16
1.664977783e-16
1.139804245e-16
7.052076858e-17
3.442532759e-16
2.716761202e-16
1.997890585e-16
1.368231635e-16
8.565861971e-17
4.254167183e-16
3.37734514e-16
2.536975154e-16
1.78004265e-16
1.14723842e-16
5.970770377e-16
4.809113936e-16
3.665841454e-16
2.589667385e-16
1.631164313e-16
9.677368037e-16
7.839408911e-16
5.934428297e-16
4.024124368e-16
2.269412546e-16
1.547606771e-15
1.33731381e-15
1.133508284e-15
9.639358197e-16
8.281925882e-16
2.446065619e-15
2.289533062e-15
2.155683108e-15
2.093163067e-15
2.103929999e-15
3.427478066e-15
3.324060423e-15
3.247766714e-15
3.270605227e-15
3.519463522e-15
3.146603738e-15
3.758702718e-15
3.53912383e-15
3.391527881e-15
3.331460608e-15
3.397363477e-15
3.21031119e-15
3.008580007e-15
2.825216475e-15
2.684463426e-15
3.773454351e-15
3.405729695e-15
3.038427718e-15
2.682574538e-15
2.346708251e-15
5.341908681e-15
4.753762614e-15
4.116241319e-15
3.451353417e-15
2.834861715e-15
7.448252054e-15
6.784485544e-15
5.995736763e-15
4.995409872e-15
3.991757042e-15
9.159085095e-15
8.062217599e-15
6.689960116e-15
5.486551117e-15
4.322473782e-15
9.763146691e-15
8.819617308e-15
7.822466218e-15
6.885964923e-15
6.141691914e-15
1.276175091e-14
1.23475666e-14
1.205285963e-14
1.2030989e-14
1.182385049e-14
8.930300281e-14
2.27492174e-14
0
0
0
0
0
0
0
0
0
0
0
0
0
0
0
0
0
0
0
0
0
0
0
0
0
0
0
0
0
0
0
0
0
0
0
0
0
0
0
0
0
0
0
0
0
0
0
0
0
0
0
0
0
0
0
0
0
0
1.062736769e-12
2.470294132e-13
2.146406154e-16
0
0
0
0
0
0
0
0
0
0
0
0
0
0
0
0
0
0
0
0
0
0
0
0
0
0
0
0
0
0
0
0
0
0
0
0
0
0
0
0
0
0
0
0
0
0
0
0
0
0
0
0
0
0
0
0
0
4.526300892e-12
1.071065434e-17
0
0
0
0
0
0
0
0
0
0
0
0
0
0
0
0
0
0
0
0
0
0
0
0
0
0
0
0
0
0
0
0
0
0
0
0
0
0
0
0
0
0
0
0
0
0
0
0
0
0
0
0
0
0
0
0
0
0
1.023700751e-10
7.837039535e-13
6.663388398e-14
1.534617295e-17
0
0
0
0
0
0
0
0
0
0
0
0
0
0
0
0
0
0
0
0
0
0
0
0
0
0
0
0
0
0
0
0
0
0
0
0
0
0
0
0
0
0
0
0
0
0
0
0
0
0
0
0
0
0
0
0
4.138522343e-10
5.968424855e-12
2.12217043e-13
1.311537904e-14
0
0
0
0
0
0
0
0
0
0
0
0
0
0
0
0
0
0
0
0
0
0
0
0
0
0
0
0
0
0
0
0
0
0
0
0
0
0
0
0
0
0
0
0
0
0
0
0
0
0
0
0
0
0
0
0
1.12973218e-09
4.516233377e-11
8.417409911e-13
1.703876752e-13
3.707361637e-16
0
0
0
0
0
0
0
0
0
0
0
0
0
0
0
0
0
0
0
0
0
0
0
0
0
0
0
0
0
0
0
0
0
0
0
0
0
0
0
0
0
0
0
0
0
0
0
0
0
0
0
0
0
0
0
1.370197141e-09
1.853485651e-10
7.069306726e-12
1.630919825e-13
3.243581451e-14
1.389689124e-17
0
0
0
0
0
0
0
0
0
0
0
0
0
0
0
0
0
0
0
0
0
0
0
0
0
0
0
0
0
0
0
0
0
0
0
0
0
0
0
0
0
0
0
0
0
0
0
0
0
0
0
0
0
0
3.926530278e-09
6.372368262e-10
4.457067176e-11
1.419804846e-12
1.640792043e-14
1.377205616e-14
0
0
0
0
0
0
0
0
0
0
0
0
0
0
0
0
0
0
0
0
0
0
0
0
0
0
0
0
0
0
0
0
0
0
0
0
0
0
0
0
0
0
0
0
0
0
0
0
0
0
0
0
0
0
1.797102352e-08
1.823572128e-09
2.233420427e-10
1.160219012e-11
3.690174262e-13
1.584072854e-13
1.238945077e-15
0
0
0
0
0
0
0
0
0
0
0
0
0
0
0
0
0
0
0
0
0
0
0
0
0
0
0
0
0
0
0
0
0
0
0
0
0
0
0
0
0
0
0
0
0
0
0
0
0
0
0
0
0
2.090666494e-08
2.194331182e-09
6.907295378e-10
5.398539744e-11
2.538359626e-12
8.035879998e-14
2.515354817e-14
3.00590912e-17
0
0
0
0
0
0
0
0
0
0
0
0
0
0
0
0
0
0
0
0
0
0
0
0
0
0
0
0
0
0
0
0
0
0
0
0
0
0
0
0
0
0
0
0
0
0
0
0
0
0
0
0
1.831264599e-08
1.242444348e-09
1.26197647e-09
2.077990282e-10
1.273062237e-11
4.851228847e-13
1.521243666e-13
2.972115458e-15
0
0
0
0
0
0
0
0
0
0
0
0
0
0
0
0
0
0
0
0
0
0
0
0
0
0
0
0
0
0
0
0
0
0
0
0
0
0
0
0
0
0
0
0
0
0
0
0
0
0
0
0
2.633970605e-08
2.832950139e-09
1.470300235e-09
7.886045578e-10
5.576875949e-11
2.369288628e-12
6.223056538e-14
2.029168483e-14
6.613564988e-17
0
0
0
0
0
0
0
0
0
0
0
0
0
0
0
0
0
0
0
0
0
0
0
0
0
0
0
0
0
0
0
0
0
0
0
0
0
0
0
0
0
0
0
0
0
0
0
0
0
0
0
1.400835108e-07
1.566305131e-08
2.213065103e-09
2.405167189e-09
1.990294439e-10
9.355225932e-12
2.763257902e-13
7.054677098e-14
4.631943313e-16
0
0
0
0
0
0
0
0
0
0
0
0
0
0
0
0
0
0
0
0
0
0
0
0
0
0
0
0
0
0
0
0
0
0
0
0
0
0
0
0
0
0
0
0
0
0
0
0
0
0
0
1.874557043e-07
2.476481014e-08
3.584697474e-09
4.350587779e-09
5.366458878e-10
2.980108454e-11
1.047130407e-12
2.146421625e-13
1.021393861e-14
3.74719654e-17
0
0
0
0
0
0
0
0
0
0
0
0
0
0
0
0
0
0
0
0
0
0
0
0
0
0
0
0
0
0
0
0
0
0
0
0
0
0
0
0
0
0
0
0
0
0
0
0
0
0
1.790637725e-07
2.776241662e-08
4.014714182e-09
5.211241385e-09
1.129599877e-09
7.015179067e-11
2.837214397e-12
1.061006258e-13
2.888761169e-14
3.755098885e-16
0
0
0
0
0
0
0
0
0
0
0
0
0
0
0
0
0
0
0
0
0
0
0
0
0
0
0
0
0
0
0
0
0
0
0
0
0
0
0
0
0
0
0
0
0
0
0
0
0
0
1.597352916e-07
2.642340059e-08
4.381258727e-09
5.681860494e-09
1.640066347e-09
1.073724497e-10
4.891299236e-12
1.668697787e-13
3.017923811e-14
5.148610011e-16
0
0
0
0
0
0
0
0
0
0
0
0
0
0
0
0
0
0
0
0
0
0
0
0
0
0
0
0
0
0
0
0
0
0
0
0
0
0
0
0
0
0
0
0
0
0
0
0
0
0
1.546792569e-07
2.746111184e-08
5.434679524e-09
1.006176124e-08
1.466743023e-09
9.818135535e-11
5.000985092e-12
2.697618326e-13
5.443313651e-14
1.148520549e-15
0
0
0
0
0
0
0
0
0
0
0
0
0
0
0
0
0
0
0
0
0
0
0
0
0
0
0
0
0
0
0
0
0
0
0
0
0
0
0
0
0
0
0
0
0
0
0
0
0
0
1.615943371e-07
2.988199394e-08
6.936299139e-09
2.057864495e-08
1.439932824e-09
7.47474001e-11
3.437398245e-12
1.483909298e-13
4.23489646e-14
1.06274507e-15
0
0
0
0
0
0
0
0
0
0
0
0
0
0
0
0
0
0
0
0
0
0
0
0
0
0
0
0
0
0
0
0
0
0
0
0
0
0
0
0
0
0
0
0
0
0
0
0
0
0
2.385714776e-07
4.688107783e-08
1.786418796e-08
3.304304691e-09
3.216222042e-10
2.185362146e-11
1.209026591e-12
1.350492728e-13
7.794073073e-15
3.332488861e-14
4.434002088e-16
0
0
0
0
0
0
0
0
0
0
0
0
0
0
0
0
0
0
0
0
0
0
0
0
0
0
0
0
0
0
0
0
0
0
0
0
0
0
0
0
0
0
0
0
0
0
0
0
0
2.751652031e-07
2.066954385e-07
1.994943253e-08
1.537098768e-09
1.076934769e-10
6.828281286e-12
4.008039236e-13
5.510092767e-14
1.31008572e-14
3.494294324e-14
2.153786157e-14
2.057020049e-16
0
0
0
0
0
0
0
0
0
0
0
0
0
0
0
0
0
0
0
0
0
0
0
0
0
0
0
0
0
0
0
0
0
0
0
0
0
0
0
0
0
0
0
0
0
0
0
0
4.452550186e-08
1.631881138e-08
2.317789806e-09
2.462292487e-10
2.190564589e-11
1.697171453e-12
1.378420417e-13
1.908014094e-14
6.074804485e-15
1.247410878e-14
3.887508436e-14
1.901987824e-14
1.453616509e-16
0
0
0
0
0
0
0
0
0
0
0
0
0
0
0
0
0
0
0
0
0
0
0
0
0
0
0
0
0
0
0
0
0
0
0
0
0
0
0
0
0
0
0
0
0
0
0
4.20851846e-09
1.371812794e-09
2.577317271e-10
3.567950618e-11
3.950549276e-12
3.765459227e-13
2.148247935e-14
4.152119155e-15
1.368957587e-16
3.831717295e-16
1.09144904e-15
3.875482686e-14
1.790398905e-14
1.374896141e-16
0
0
0
0
0
0
0
0
0
0
0
0
0
0
0
0
0
0
0
0
0
0
0
0
0
0
0
0
0
0
0
0
0
0
0
0
0
0
0
0
0
0
0
0
0
0
4.041752336e-10
1.370033408e-10
3.064028998e-11
5.058189435e-12
6.808265038e-13
1.009151633e-13
1.811900768e-14
2.907485573e-15
1.197960592e-15
3.030283242e-16
1.589240237e-16
8.900361562e-16
3.946672782e-14
1.883809711e-14
7.039875187e-16
0
0
0
0
0
0
0
0
0
0
0
0
0
0
0
0
0
0
0
0
0
0
0
0
0
0
0
0
0
0
0
0
0
0
0
0
0
0
0
0
0
0
0
0
0
4.075014246e-11
1.473829108e-11
3.709488572e-12
7.204853595e-13
1.221450444e-13
9.328648134e-15
2.543673322e-15
1.880379987e-15
1.75838696e-15
1.256492118e-15
2.526627007e-16
2.574590916e-16
2.058444143e-15
4.65446689e-14
2.572720027e-14
4.740547887e-15
0
0
0
0
0
0
0
0
0
0
0
0
0
0
0
0
0
0
0
0
0
0
0
0
0
0
0
0
0
0
0
0
0
0
0
0
0
0
0
0
0
0
0
0
4.2166297e-12
1.629287833e-12
4.250301294e-13
1.056652617e-13
2.696173792e-14
8.068330023e-15
3.358572553e-15
1.552817245e-15
1.029851081e-15
1.272459131e-15
4.374497604e-16
4.763087507e-17
2.828412161e-16
2.340249367e-15
4.903829878e-14
2.434627145e-14
3.905676583e-15
0
0
0
0
0
0
0
0
0
0
0
0
0
0
0
0
0
0
0
0
0
0
0
0
0
0
0
0
0
0
0
0
0
0
0
0
0
0
0
0
0
0
0
4.475998263e-13
1.97184827e-13
7.413795084e-14
3.030211767e-14
1.072275471e-14
4.263054148e-15
2.053117923e-15
1.070395689e-15
8.516919358e-16
1.394023126e-15
1.290360266e-15
0
3.313696099e-16
3.432007684e-15
3.070586642e-14
4.638317001e-14
1.390860341e-14
7.250549145e-17
0
0
0
0
0
0
0
0
0
0
0
0
0
0
0
0
0
0
0
0
0
0
0
0
0
0
0
0
0
0
0
0
0
0
0
0
0
0
0
0
0
0
7.969287809e-14
4.209922634e-14
2.060730784e-14
6.391122198e-15
4.391062373e-15
1.740697716e-15
1.23060805e-15
7.050878636e-16
6.234825987e-16
1.289486784e-15
2.1287916e-15
2.194576248e-15
3.134858466e-16
4.722600299e-16
4.286974988e-15
5.886675251e-14
6.856161439e-14
2.080239936e-14
1.217473149e-16
0
0
0
0
0
0
0
0
0
0
0
0
0
0
0
0
0
0
0
0
0
0
0
0
0
0
0
0
0
0
0
0
0
0
0
0
0
0
0
0
0
2.452714457e-14
1.471582609e-14
7.74838709e-15
4.523794022e-15
2.602876847e-15
1.48913585e-15
1.080191303e-15
9.020065773e-16
1.097846277e-15
1.761459862e-15
2.808504264e-15
3.075145222e-15
0
0
5.894540225e-16
7.455861628e-15
7.12362878e-14
8.293428937e-14
2.651495159e-14
1.320503149e-16
0
0
0
0
0
0
0
0
0
0
0
0
0
0
0
0
0
0
0
0
0
0
0
0
0
0
0
0
0
0
0
0
0
0
0
0
0
0
0
0
8.416985104e-15
5.281451116e-15
3.605336133e-15
2.270435726e-15
1.436270515e-15
1.085608462e-15
9.556931844e-16
9.691030345e-16
1.079505887e-15
3.975289765e-16
2.421795441e-15
3.422294695e-15
3.059217854e-15
8.537254697e-16
1.749860968e-15
5.064600711e-15
1.858643658e-14
6.361607517e-14
3.248651338e-14
6.352164587e-15
0
0
0
0
0
0
0
0
0
0
0
0
0
0
0
0
0
0
0
0
0
0
0
0
0
0
0
0
0
0
0
0
0
0
0
0
0
0
0
0
3.820007602e-15
2.748643609e-15
1.956013092e-15
1.301673388e-15
1.086421407e-15
1.010106045e-15
1.060963959e-15
1.263008758e-15
1.410684434e-15
5.592552252e-16
2.395568366e-15
3.531746535e-15
3.824825426e-15
3.082845437e-15
6.017647612e-16
5.163670833e-16
5.64231039e-15
6.809779954e-14
8.668057796e-14
4.136179439e-14
7.173085564e-15
0
0
0
0
0
0
0
0
0
0
0
0
0
0
0
0
0
0
0
0
0
0
0
0
0
0
0
0
0
0
0
0
0
0
0
0
0
0
0
2.004684755e-15
1.574739167e-15
1.242040646e-15
1.068018745e-15
1.047827122e-15
1.162499716e-15
1.315351273e-15
1.558214414e-15
1.919440616e-15
2.29881401e-15
2.908251912e-15
3.309971882e-15
3.735593703e-15
3.093387843e-15
2.644901641e-16
1.856066166e-17
5.926970104e-16
6.888840012e-15
8.425884118e-14
1.032757352e-13
4.610144402e-14
4.505565224e-15
0
0
0
0
0
0
0
0
0
0
0
0
0
0
0
0
0
0
0
0
0
0
0
0
0
0
0
0
0
0
0
0
0
0
0
0
0
0
1.237838412e-15
1.121833126e-15
1.044878712e-15
1.068625432e-15
1.134517292e-15
1.281229143e-15
1.359622697e-15
1.874327605e-15
2.266090025e-15
2.695667105e-15
2.964639339e-15
2.930118763e-15
3.591517955e-15
3.754377143e-15
0
7.719797364e-16
1.017044053e-15
1.597936902e-14
7.967214479e-14
1.07918991e-13
6.689335074e-14
2.578443302e-14
1.686276258e-16
0
0
0
0
0
0
0
0
0
0
0
0
0
0
0
0
0
0
0
0
0
0
0
0
0
0
0
0
0
0
0
0
0
0
0
0
0
1.068021135e-15
1.103770654e-15
1.18823359e-15
1.316591576e-15
1.442715506e-15
1.694501263e-15
1.840503046e-15
2.296302747e-15
2.882331152e-15
3.359125767e-15
3.688288742e-15
3.966977044e-15
4.243417517e-15
4.104983834e-15
3.100586744e-15
9.881834708e-17
2.781310574e-17
7.782750288e-16
8.512388734e-15
9.089678338e-14
1.15666743e-13
6.540641264e-14
2.014242851e-14
7.106434156e-17
0
0
0
0
0
0
0
0
0
0
0
0
0
0
0
0
0
0
0
0
0
0
0
0
0
0
0
0
0
0
0
0
0
0
0
0
1.249513707e-15
1.414618766e-15
1.606925928e-15
1.87570447e-15
2.180860434e-15
2.537182555e-15
2.880338811e-15
3.349069472e-15
4.081613291e-15
4.624743481e-15
5.051071189e-15
5.319343409e-15
5.13344745e-15
5.704236242e-15
5.869657917e-15
2.109753958e-15
5.779613794e-15
1.137747285e-14
3.309192629e-14
9.383053535e-14
1.322817274e-13
1.309613072e-13
6.18732868e-14
1.145470152e-14
0
0
0
0
0
0
0
0
0
0
0
0
0
0
0
0
0
0
0
0
0
0
0
0
0
0
0
0
0
0
0
0
0
0
0
0
1.728486596e-15
1.998075504e-15
2.460112918e-15
2.990888431e-15
3.419526956e-15
3.920652071e-15
4.403761732e-15
4.760729449e-15
5.312029492e-15
5.87007661e-15
6.199178929e-15
6.225115589e-15
5.961847703e-15
6.226048392e-15
5.485312938e-15
5.366432925e-15
7.780621106e-16
3.363670378e-15
3.05541486e-15
6.745002683e-15
9.989463389e-14
1.340692632e-13
8.642682163e-14
3.646582543e-14
3.942091646e-16
0
0
0
0
0
0
0
0
0
0
0
0
0
0
0
0
0
0
0
0
0
0
0
0
0
0
0
0
0
0
0
0
0
0
0
2.336150031e-15
2.788372011e-15
3.428564999e-15
4.186722473e-15
4.807060679e-15
5.375838023e-15
5.83179912e-15
6.066925019e-15
6.536491393e-15
6.749393102e-15
6.598386105e-15
6.585823838e-15
6.133147588e-15
5.949968385e-15
5.7595418e-15
5.696947833e-15
9.168303755e-16
2.005225245e-15
1.504603471e-15
1.243643796e-14
6.348446903e-14
1.200254252e-13
1.370859503e-13
7.91646419e-14
2.743796968e-14
1.587345239e-16
0
0
0
0
0
0
0
0
0
0
0
0
0
0
0
0
0
0
0
0
0
0
0
0
0
0
0
0
0
0
0
0
0
0
3.20838065e-15
3.772268391e-15
4.559300445e-15
5.215303271e-15
5.755625224e-15
6.220781534e-15
6.549890131e-15
6.658032699e-15
7.005696533e-15
6.907822678e-15
6.59645273e-15
6.260548491e-15
5.708847964e-15
4.994942837e-15
5.084145205e-15
4.540209131e-15
0
8.882405716e-16
4.697080787e-17
5.642766274e-16
3.541278024e-15
1.047216971e-13
1.50158653e-13
1.137508512e-13
6.17850929e-14
1.254006132e-14
5.157638914e-19
0
0
0
0
0
0
0
0
0
0
0
0
0
0
0
0
0
0
0
0
0
0
0
0
0
0
0
0
0
0
0
0
0
3.65797694e-15
4.171279299e-15
4.87731366e-15
5.395927922e-15
5.771266735e-15
6.052296884e-15
6.192120946e-15
6.123089612e-15
6.328872338e-15
6.191748882e-15
6.026802908e-15
5.23339391e-15
4.409662964e-15
3.316065359e-15
3.009829056e-15
1.713466045e-15
1.674234291e-15
8.731255229e-18
0
0
8.843978961e-16
6.586252793e-15
1.183133597e-13
1.503905959e-13
9.698956071e-14
4.122578806e-14
4.608350396e-16
0
0
0
0
0
0
0
0
0
0
0
0
0
0
0
0
0
0
0
0
0
0
0
0
0
0
0
0
0
0
0
0
0
3.523321391e-15
4.06879072e-15
4.52869588e-15
4.866577851e-15
5.122364089e-15
5.174942882e-15
5.184455738e-15
5.130753925e-15
4.962557013e-15
4.648408184e-15
4.455262587e-15
3.513198032e-15
2.587638926e-15
1.471878583e-15
1.357464812e-15
5.075102679e-16
1.268775172e-15
0
0
0
1.586642746e-16
0
1.149744148e-13
1.781739745e-13
1.869581228e-13
9.131381885e-14
2.703967791e-14
1.67112475e-16
0
0
0
0
0
0
0
0
0
0
0
0
0
0
0
0
0
0
0
0
0
0
0
0
0
0
0
0
0
0
0
0
2.86968229e-15
3.201940873e-15
3.458686081e-15
3.610931917e-15
3.722203411e-15
3.647810134e-15
3.574728508e-15
3.448113865e-15
3.211540116e-15
2.864187716e-15
2.714632757e-15
1.842168223e-15
1.031278042e-15
9.585848055e-17
0
0
8.057193458e-17
0
8.854120108e-18
0
2.182266406e-16
6.274392275e-16
6.895733768e-15
1.2849484e-13
1.680502344e-13
1.131603917e-13
5.501702636e-14
9.338811762e-15
0
0
0
0
0
0
0
0
0
0
0
0
0
0
0
0
0
0
0
0
0
0
0
0
0
0
0
0
0
0
0
0
1.850240731e-15
1.992723754e-15
2.093187416e-15
2.180107819e-15
2.159026311e-15
2.020225835e-15
1.957824457e-15
1.823066052e-15
1.647737759e-15
1.414213469e-15
1.462628373e-15
7.887547848e-16
3.149522352e-16
0
0
0
0
6.350683692e-16
0
0
0
1.629598497e-16
3.680025313e-18
1.203822022e-13
1.830893308e-13
1.801144866e-13
1.013169582e-13
3.741019473e-14
4.226060183e-16
0
0
0
0
0
0
0
0
0
0
0
0
0
0
0
0
0
0
0
0
0
0
0
0
0
0
0
0
0
0
0
8.324486186e-16
8.708131788e-16
8.657194365e-16
8.811481688e-16
7.915604201e-16
6.856469294e-16
6.883840957e-16
6.136549856e-16
5.417793566e-16
3.97409632e-16
5.429564063e-16
1.807355478e-16
7.883989813e-18
0
0
9.316397505e-17
0
5.341381193e-16
0
0
0
5.938886444e-16
9.08600478e-15
3.216630802e-14
1.413318093e-13
1.77329817e-13
1.246860362e-13
6.572306308e-14
1.643955847e-14
6.909401897e-17
0
0
0
0
0
0
0
0
0
0
0
0
0
0
0
0
0
0
0
0
0
0
0
0
0
0
0
0
0
0
1.949650501e-16
1.828142946e-16
2.153521932e-16
1.92328939e-16
7.202076232e-17
4.260747865e-17
5.390453033e-17
3.621691643e-17
4.962462325e-17
3.850756105e-18
1.365843851e-16
3.208999498e-17
1.327864441e-17
0
0
1.507475442e-16
0
0
0
0
0
0
4.095098124e-16
2.636069207e-15
1.284619318e-13
1.942118215e-13
1.92839268e-13
1.138785717e-13
4.689930455e-14
3.774990047e-15
0
0
0
0
0
0
0
0
0
0
0
0
0
0
0
0
0
0
0
0
0
0
0
0
0
0
0
0
0
0
0
2.535732314e-17
3.034246738e-17
1.150209953e-17
0
0
0
0
0
0
1.099984983e-16
2.317666551e-17
1.889114e-17
6.705101101e-17
0
0
0
0
5.4291335e-16
0
0
0
1.475706536e-16
0
8.532762967e-14
1.627741496e-13
1.939379305e-13
1.39022269e-13
7.683444752e-14
2.304176627e-14
1.836477052e-16
0
0
0
0
0
0
0
0
0
0
0
0
0
0
0
0
0
0
0
0
0
0
0
0
0
0
0
0
0
0
3.431474306e-18
7.945437404e-18
0
0
5.514432114e-18
0
0
0
0
2.378810069e-17
1.929063869e-17
1.652766852e-17
6.27973086e-17
0
0
0
0
5.728220423e-16
0
0
0
0
4.786105082e-16
6.442265503e-15
1.383206335e-13
2.057483475e-13
2.028611616e-13
1.220094341e-13
5.271643045e-14
7.279767535e-15
0
0
0
0
0
0
0
0
0
0
0
0
0
0
0
0
0
0
0
0
0
0
0
0
0
0
0
0
0
4.790443563e-18
6.949980969e-18
0
0
3.59915112e-18
0
8.391120767e-19
0
0
0
2.119455391e-17
2.25529449e-17
1.746333819e-17
6.626714617e-17
0
0
8.402627647e-17
7.852197965e-16
1.898785808e-15
1.526059956e-15
1.732486873e-15
1.427296609e-15
6.948937491e-16
2.768874856e-16
8.760791799e-17
1.128725161e-13
1.887298623e-13
2.115561924e-13
1.503690904e-13
8.333778074e-14
2.661698093e-14
3.173945408e-16
0
0
0
0
0
0
0
0
0
0
0
0
0
0
0
0
0
0
0
0
0
0
0
0
0
0
0
0
7.518884875e-18
0
0
0
8.853024839e-18
0
0
0
1.272622538e-18
0
1.633231342e-16
4.482754796e-16
8.625915331e-16
1.586621027e-15
2.043850845e-15
3.193821772e-15
4.748408269e-15
6.434101246e-15
7.940761172e-15
9.174083348e-15
1.029839927e-14
1.045575191e-14
9.587828687e-15
8.164547235e-15
1.27650018e-14
2.346180785e-14
1.590632015e-13
2.294313658e-13
2.306246426e-13
1.342811551e-13
5.632358974e-14
8.717660672e-15
6.925620632e-18
0
0
0
0
0
0
0
0
0
0
0
0
0
0
0
0
0
0
0
0
0
0
0
0
0
0
0
0
0
0
9.630735987e-18
0
0
8.793533861e-18
2.670257541e-17
3.476939413e-17
3.080344879e-16
1.08726599e-15
2.081382039e-15
3.332445247e-15
5.03073142e-15
6.613419668e-15
9.074252586e-15
1.226508482e-14
1.439986497e-14
1.625664239e-14
1.811356211e-14
1.94692985e-14
1.991404932e-14
1.822908656e-14
1.431069116e-14
9.192533884e-15
6.788833942e-15
1.371192653e-13
2.154931406e-13
2.293092399e-13
1.550449677e-13
8.236757258e-14
2.555200845e-14
3.316286577e-16
0
0
0
0
0
0
0
0
0
0
0
0
0
0
0
0
0
0
0
0
0
0
0
0
0
0
0
0
0
1.40736272e-17
1.376382223e-17
8.169659279e-18
6.640119755e-17
1.779047295e-16
3.730650563e-16
6.933256982e-16
1.4868675e-15
2.53748209e-15
3.948126251e-15
5.728696941e-15
8.075113658e-15
1.035150232e-14
1.352983652e-14
1.741365382e-14
2.030228316e-14
2.280879683e-14
2.527403229e-14
2.669648292e-14
2.754996631e-14
2.66027875e-14
2.424326466e-14
2.177047333e-14
2.625855015e-14
3.562152031e-14
1.627566402e-13
2.105467388e-13
1.669329081e-13
1.058424045e-13