/*--------------------------------*- C++ -*----------------------------------*\
  =========                 |
  \\      /  F ield         | OpenFOAM: The Open Source CFD Toolbox
   \\    /   O peration     | Website:  https://openfoam.org
    \\  /    A nd           | Version:  10
     \\/     M anipulation  |
\*---------------------------------------------------------------------------*/
FoamFile
{
    format      ascii;
    class       volScalarField;
    location    "0.02498436188";
    object      CH2O;
}
// * * * * * * * * * * * * * * * * * * * * * * * * * * * * * * * * * * * * * //

dimensions      [0 0 0 0 0 0 0];

internalField   nonuniform List<scalar> 
5170
(
7.409523418e-09
7.397162452e-09
7.314153441e-09
6.722972297e-09
5.07226576e-10
1.467636704e-08
1.463788421e-08
1.44618176e-08
1.356036117e-08
8.423774444e-09
2.186986301e-08
2.180590555e-08
2.154922944e-08
2.047420272e-08
1.623602764e-08
2.897492132e-08
2.8888484e-08
2.85721299e-08
2.742974365e-08
2.406116449e-08
3.598745143e-08
3.588249744e-08
3.552929008e-08
3.440458466e-08
3.189256149e-08
4.290939078e-08
4.279297079e-08
4.242652778e-08
4.139545133e-08
3.972966464e-08
4.975043284e-08
4.962835222e-08
4.927142166e-08
4.840893807e-08
4.757852138e-08
5.652584627e-08
5.640630695e-08
5.60799712e-08
5.544849928e-08
5.544751273e-08
6.324715203e-08
6.313727351e-08
6.286502709e-08
6.252314186e-08
6.334423153e-08
6.992612405e-08
6.983082055e-08
6.962887337e-08
6.964205825e-08
7.127601159e-08
7.656930448e-08
7.649354933e-08
7.63750523e-08
7.680929172e-08
7.92433461e-08
8.317737875e-08
8.312776327e-08
8.312070771e-08
8.40226427e-08
8.72379683e-08
8.975197904e-08
8.973542533e-08
8.987345741e-08
9.128197707e-08
9.525150462e-08
9.62953603e-08
9.631891143e-08
9.663201585e-08
9.858664705e-08
1.032760421e-07
1.028086655e-07
1.028806491e-07
1.033965832e-07
1.059324487e-07
1.113019338e-07
1.092912893e-07
1.094211282e-07
1.101774734e-07
1.133202745e-07
1.1930974e-07
1.157441692e-07
1.159425371e-07
1.169681461e-07
1.207357064e-07
1.273060343e-07
1.221690062e-07
1.224485105e-07
1.237893805e-07
1.281878108e-07
1.352642331e-07
1.285678123e-07
1.289442216e-07
1.306553841e-07
1.357244814e-07
1.43361976e-07
1.350272327e-07
1.358814226e-07
1.405284507e-07
1.622776051e-07
2.392533599e-07
7.092588789e-13
6.852491427e-13
7.106305462e-13
7.195607023e-13
7.348837989e-13
3.512251836e-13
3.895078228e-13
4.048851215e-13
3.977368114e-13
3.396405535e-13
1.787155748e-13
2.0470199e-13
2.267170294e-13
2.092764814e-13
1.557400294e-13
1.012107663e-13
1.203520854e-13
1.385489988e-13
1.182096257e-13
8.360828559e-14
7.315251384e-14
9.765191176e-14
8.716544316e-14
5.771075223e-14
4.290992859e-15
0
8.398706161e-14
2.918625687e-14
8.002624533e-14
0
0
0
0
2.409171363e-12
0
0
3.586246811e-12
4.045209821e-12
0
0
1.414777939e-10
0
0
0
3.156220511e-10
1.684090135e-10
8.129623539e-09
0
0
0
4.905390624e-11
3.623495869e-09
0
1.133534373e-12
1.005677529e-11
0
2.192782105e-10
0
0
2.319837976e-10
5.772919834e-11
0
0
0
1.978389702e-09
3.514185313e-10
0
0
7.607618519e-10
4.33472896e-09
2.058753369e-09
3.06906801e-10
3.188601928e-10
2.097560878e-09
3.089167979e-09
2.220856963e-09
1.768713181e-09
1.736761902e-09
2.582461242e-09
3.408708542e-09
1.753856618e-09
3.607347588e-09
3.577636572e-09
2.574150249e-09
5.115613191e-09
2.463209958e-09
2.869024251e-09
2.948574249e-09
3.057290638e-09
2.537333616e-09
1.330330206e-08
4.160813673e-09
2.543188426e-09
4.572598131e-09
2.107632547e-09
1.054946699e-06
1.704201643e-07
3.006005428e-08
5.778825406e-09
2.973399551e-10
1.43319319e-07
1.598168048e-07
4.251422566e-07
4.346813526e-06
5.235536469e-05
1.612147887e-07
2.448943322e-07
1.36848185e-06
1.347670069e-05
0.000100217044
2.052582657e-07
4.801591416e-07
3.57655055e-06
2.807824705e-05
0.0001447384296
3.062089405e-07
9.97424081e-07
7.5510906e-06
4.749523265e-05
0.0001805119097
5.186146505e-07
1.997276111e-06
1.392318507e-05
6.985580506e-05
0.0002061121902
9.454948504e-07
3.843587415e-06
2.326128143e-05
9.297481155e-05
0.0002253668588
1.756421853e-06
7.013034979e-06
3.572834045e-05
0.000115809008
0.0002429485895
3.209971609e-06
1.204325387e-05
5.099983362e-05
0.0001378802812
0.0002595234335
5.715076969e-06
1.960436804e-05
6.8526997e-05
0.0001586019077
0.0002737646423
9.858804149e-06
3.005710504e-05
8.756508341e-05
0.0001778651162
0.0002858479432
1.653355454e-05
4.391621835e-05
0.0001075284203
0.0001956632384
0.0002959408422
2.752342296e-05
6.137969746e-05
0.0001277664439
0.0002123743993
0.000305062338
4.474088209e-05
8.209586746e-05
0.0001482489875
0.0002283547191
0.0003137309029
6.716553761e-05
0.0001051830523
0.0001688690829
0.0002436965366
0.0003217880364
9.579358767e-05
0.0001310913006
0.0001901281749
0.0002589240877
0.0003299898333
0.0001280958029
0.0001591981418
0.0002125460068
0.000275072807
0.0003395651503
0.0001640182751
0.0001906002556
0.0002376490407
0.0002936396961
0.0003517826628
0.0002046935151
0.0002267334605
0.0002674675511
0.0003176237443
0.0003710172068
0.0002506222895
0.0002697885909
0.0003069516352
0.0003548646445
0.0004075315968
0.0003104870602
0.0003293274193
0.0003673007047
0.0004185751919
0.0004784866392
0.0003963932373
0.0004153893589
0.0004542529665
0.0005076097675
0.0005712211565
0.0005003746406
0.0005146082009
0.0005442511288
0.0005853491451
0.0006342573153
0.0005615790245
0.0005691632911
0.0005848350741
0.0006062468426
0.0006307077409
0.000551682458
0.0005540819577
0.0005587111094
0.0005642928221
0.0005693256404
0.0004892307889
0.0004888577117
0.0004875629735
0.0004848476987
0.0004801928609
0.0004055494446
0.0004041813759
0.0004009160191
0.0003956297655
0.0003882248607
0.0003288902672
0.0003274535889
0.000324090933
0.0003188368484
0.000311771571
0.0002639197698
0.0002626831292
0.0002598307089
0.0002554406953
0.0002496284634
0.000211463733
0.000210487033
0.0002082519507
0.0002048361987
0.0002003429384
0.0001698550907
0.0001691153935
0.0001674299548
0.0001648619917
0.0001614916398
0.0001369898018
0.0001364422208
0.0001351969398
0.0001332998816
0.0001308101258
0.0001109880039
0.0001105870365
0.0001096755167
0.0001082859956
0.0001064596324
9.035461469e-05
9.006176877e-05
8.939576845e-05
8.83791249e-05
8.704032288e-05
7.395727539e-05
7.374285546e-05
7.325484133e-05
7.250875687e-05
7.152423953e-05
6.096631067e-05
6.080820392e-05
6.044822945e-05
5.989713383e-05
5.916846335e-05
5.075035783e-05
5.063239732e-05
5.036389733e-05
4.995245299e-05
4.940745714e-05
4.278770248e-05
4.269815176e-05
4.249460792e-05
4.218258885e-05
4.176865453e-05
3.662241371e-05
3.655293847e-05
3.63954023e-05
3.615398443e-05
3.583332302e-05
3.185729094e-05
3.180207715e-05
3.167729115e-05
3.14862181e-05
3.123219912e-05
2.815985294e-05
2.811492426e-05
2.801375737e-05
2.78590351e-05
2.765321645e-05
2.52635921e-05
2.522621688e-05
2.514237526e-05
2.501431689e-05
2.484389006e-05
2.296286501e-05
2.293116315e-05
2.286029393e-05
2.275218762e-05
2.260826605e-05
2.110242636e-05
2.107507172e-05
2.101418923e-05
2.092144032e-05
2.079794094e-05
1.956947741e-05
1.954562747e-05
1.949261214e-05
1.941191778e-05
1.930444718e-05
1.828068869e-05
1.825964245e-05
1.821295506e-05
1.814194749e-05
1.804736088e-05
1.717564174e-05
1.715691816e-05
1.711544928e-05
1.70524172e-05
1.69684386e-05
1.62112467e-05
1.619447752e-05
1.615738258e-05
1.610102182e-05
1.602591579e-05
1.535542155e-05
1.534033776e-05
1.53069987e-05
1.525637379e-05
1.518890552e-05
1.458798367e-05
1.457438656e-05
1.454435763e-05
1.449875899e-05
1.443797763e-05
1.389381836e-05
1.388152967e-05
1.385440182e-05
1.381320997e-05
1.375828504e-05
1.32605123e-05
1.324935845e-05
1.32247605e-05
1.318740861e-05
1.313759213e-05
1.268402044e-05
1.267389586e-05
1.265156601e-05
1.261767283e-05
1.257246814e-05
1.215608532e-05
1.214688027e-05
1.212658263e-05
1.209576772e-05
1.205465588e-05
1.16714693e-05
1.166307572e-05
1.164457243e-05
1.161648177e-05
1.157899653e-05
1.122577555e-05
1.121810002e-05
1.120118427e-05
1.117550371e-05
1.114122686e-05
1.081534824e-05
1.080829951e-05
1.079276968e-05
1.076919399e-05
1.073772009e-05
1.043685878e-05
1.043035109e-05
1.041601817e-05
1.039426074e-05
1.036520924e-05
1.008691583e-05
1.008087245e-05
1.00675677e-05
1.004737433e-05
1.002040962e-05
9.761488357e-06
9.755845995e-06
9.743429621e-06
9.724588417e-06
9.699429112e-06
9.455520509e-06
9.45023487e-06
9.43860679e-06
9.420962283e-06
9.397394983e-06
9.162632797e-06
9.157647742e-06
9.146682039e-06
9.130043607e-06
9.107821904e-06
8.875143948e-06
8.870447556e-06
8.86011424e-06
8.844431406e-06
8.823482169e-06
8.588196942e-06
8.583812315e-06
8.574161661e-06
8.559516765e-06
8.539966729e-06
8.301114989e-06
8.297029594e-06
8.288029789e-06
8.274360711e-06
8.256095369e-06
8.012886832e-06
8.009119459e-06
8.000812748e-06
7.988189527e-06
7.971318331e-06
7.728202352e-06
7.724767579e-06
7.717187508e-06
7.70566302e-06
7.690258075e-06
7.45548194e-06
7.452378322e-06
7.44552002e-06
7.435078758e-06
7.421101682e-06
7.200102606e-06
7.197224918e-06
7.190866481e-06
7.181190452e-06
7.168245575e-06
6.964880955e-06
6.962178873e-06
6.95620725e-06
6.947113111e-06
6.934934682e-06
6.766375064e-06
6.763805884e-06
6.758129963e-06
6.749489006e-06
6.737920094e-06
0.0001622898866
0.0002320804839
0.0002804000616
0.0003058304125
0.0003172605653
0.000325465363
0.0003358313924
0.0003459071777
0.0003525797447
0.0003577059042
0.0003607858886
0.0003639672556
0.000367490384
0.0003702830355
0.0003738712003
0.00037960182
0.0003882758505
0.0004047193396
0.0004417729232
0.0005204025751
0.0006172201785
0.0006693821573
0.0006474789218
0.0005719157401
0.0004761715696
0.0003824437563
0.0003064281262
0.0002452746636
0.0001969866734
0.0001589744642
0.0001289491029
0.0001050930583
8.60376422e-05
7.078615631e-05
5.862127619e-05
4.899695222e-05
4.145534365e-05
3.558897779e-05
3.103709142e-05
2.749374852e-05
2.471071337e-05
2.249491119e-05
2.070000479e-05
1.921872861e-05
1.797155483e-05
1.69008829e-05
1.596531511e-05
1.513433954e-05
1.438872768e-05
1.371370371e-05
1.309709442e-05
1.253568292e-05
1.202116072e-05
1.154842175e-05
1.111323708e-05
1.071198927e-05
1.034143136e-05
9.998315228e-06
9.678793131e-06
9.378041478e-06
9.089571605e-06
8.8062834e-06
8.523949006e-06
8.241132022e-06
7.957520867e-06
7.677681295e-06
7.409684345e-06
7.157680227e-06
6.924987113e-06
6.728469995e-06
0.0002978277347
2.283753621e-05
6.968493617e-07
1.097890339e-07
1.304460278e-08
0.000428164274
0.0005755589786
3.318788562e-05
1.007016365e-06
2.701610521e-07
0.0004897461205
0.0006791144801
6.389729046e-05
3.386010214e-06
1.268211022e-06
0.0004987957815
0.000625896285
0.0001364812891
1.060158285e-05
1.866798426e-06
0.0004870173155
0.0005857486168
0.0002722678528
2.741035296e-05
2.134230936e-06
0.0004781143772
0.0005815389589
0.0003872584897
4.849420932e-05
4.608022199e-06
0.0004774526449
0.0005888250691
0.0004707625218
6.827012365e-05
7.805366505e-06
0.0004765620828
0.00058646498
0.0005002530835
9.820598253e-05
1.284213786e-05
0.0004698595405
0.0005684639015
0.0005022501787
0.0001811284603
2.639719462e-05
0.0004638828938
0.000554250518
0.0005085623751
0.0002340365924
3.847243938e-05
0.0004553333662
0.0005397553475
0.0005074689009
0.0002671670108
4.835753021e-05
0.0004494532691
0.0005261239387
0.0004995732445
0.0003022788201
6.19588026e-05
0.0004453094977
0.0005138074468
0.0004990200969
0.0003446493041
0.0001158811559
0.0004399000314
0.0005036846063
0.0004980657238
0.0003684152703
0.0001476445689
0.0004370870207
0.0004982154134
0.0004975729048
0.0003844274013
0.0001774828816
0.0004371280957
0.0004954655219
0.0004970392231
0.0003954695226
0.0002007559202
0.0004407372545
0.0004955366312
0.0004982782613
0.0004057228183
0.0002234385578
0.0004529166954
0.0005035172959
0.0005041976765
0.000410468407
0.0002252528949
0.0004893970067
0.0005391226329
0.0005298113669
0.000419008059
0.000202871156
0.0005789209948
0.0006598740599
0.0006999943885
0.0006300874477
0.0002654486791
0.0006832747654
0.0007903844793
0.0008939099166
0.0009747306427
0.0009903218414
0.0007210873771
0.0007974022636
0.00085796545
0.0008844948081
0.0008537203969
0.0006737706557
0.0007013697042
0.0007057249625
0.0006785712441
0.0006166564876
0.000578193843
0.0005736480409
0.0005511554385
0.0005101814309
0.0004536463018
0.0004728543754
0.0004565004353
0.0004284673087
0.000390562566
0.0003457996218
0.0003761602989
0.0003584052415
0.0003333671083
0.0003029941764
0.0002695117045
0.0003003234046
0.0002850893904
0.0002650349626
0.0002417340786
0.0002167478913
0.0002401858388
0.0002281380496
0.0002127424131
0.0001951895902
0.000176549527
0.0001930180567
0.0001838283545
0.0001722338427
0.0001590918009
0.0001451548592
0.0001559817837
0.0001491085452
0.0001404550303
0.0001306350288
0.0001201822401
0.0001267361534
0.0001216443268
0.000115213136
0.0001078776453
0.0001000162709
0.0001034741561
9.971812068e-05
9.494072385e-05
8.945159942e-05
8.351995419e-05
8.485738415e-05
8.208585118e-05
7.852892462e-05
7.440801554e-05
6.991607006e-05
6.992318726e-05
6.787011996e-05
6.521112146e-05
6.210481947e-05
5.869029009e-05
5.798393341e-05
5.645175727e-05
5.445203014e-05
5.209865135e-05
4.949192685e-05
4.851760173e-05
4.736042527e-05
4.584289744e-05
4.4046693e-05
4.204413798e-05
4.108540651e-05
4.019635765e-05
3.902958577e-05
3.764348885e-05
3.609002252e-05
3.529480174e-05
3.459704977e-05
3.368443523e-05
3.259887484e-05
3.137779781e-05
3.079615548e-05
3.02357887e-05
2.95079036e-05
2.864250468e-05
2.766664567e-05
2.729124776e-05
2.683086739e-05
2.623815946e-05
2.553480588e-05
2.474046089e-05
2.453689306e-05
2.415062259e-05
2.365809164e-05
2.307508848e-05
2.241640988e-05
2.234321649e-05
2.201308098e-05
2.159626774e-05
2.110451085e-05
2.054873227e-05
2.056612813e-05
2.028005481e-05
1.992177011e-05
1.950019934e-05
1.902369091e-05
1.909947655e-05
1.884841634e-05
1.853620412e-05
1.816969352e-05
1.775541748e-05
1.786459496e-05
1.764206478e-05
1.736693468e-05
1.704461942e-05
1.668018877e-05
1.680451259e-05
1.660580572e-05
1.63611637e-05
1.60749262e-05
1.575123381e-05
1.587812355e-05
1.56995386e-05
1.548036484e-05
1.522437059e-05
1.493498769e-05
1.505533059e-05
1.489439277e-05
1.469748565e-05
1.446755387e-05
1.42074824e-05
1.431706285e-05
1.417163719e-05
1.399399438e-05
1.378657657e-05
1.355174755e-05
1.36485599e-05
1.35167414e-05
1.33558624e-05
1.316796065e-05
1.295518253e-05
1.303771779e-05
1.291790386e-05
1.277189269e-05
1.260144692e-05
1.24083404e-05
1.248159472e-05
1.237262514e-05
1.22399284e-05
1.20849977e-05
1.190934031e-05
1.197177392e-05
1.187244715e-05
1.175156978e-05
1.161041159e-05
1.145025375e-05
1.15032231e-05
1.141246884e-05
1.130209179e-05
1.117316353e-05
1.102677756e-05
1.107175037e-05
1.098858319e-05
1.088747875e-05
1.076935421e-05
1.063513759e-05
1.067374912e-05
1.059721728e-05
1.050423891e-05
1.039558679e-05
1.027206202e-05
1.03059917e-05
1.023521303e-05
1.014931053e-05
1.004894221e-05
9.934795406e-06
9.96528592e-06
9.899481559e-06
9.81971703e-06
9.726556408e-06
9.620595551e-06
9.647856219e-06
9.586366227e-06
9.511923e-06
9.425020673e-06
9.326126546e-06
9.348961951e-06
9.291234136e-06
9.22140052e-06
9.139803783e-06
9.046898708e-06
9.062134092e-06
9.007676769e-06
8.9417851e-06
8.864797902e-06
8.777138981e-06
8.780456109e-06
8.729161109e-06
8.667073715e-06
8.59455783e-06
8.512004049e-06
8.499957663e-06
8.451987872e-06
8.393943931e-06
8.325910846e-06
8.248288344e-06
8.218827809e-06
8.174172963e-06
8.119842218e-06
8.056174353e-06
7.983532605e-06
7.937069696e-06
7.895908697e-06
7.845672192e-06
7.78671526e-06
7.71939525e-06
7.659143832e-06
7.621621742e-06
7.575667835e-06
7.521668912e-06
7.459820103e-06
7.392920348e-06
7.358770277e-06
7.316810539e-06
7.267135467e-06
7.210032437e-06
7.142184843e-06
7.110523398e-06
7.071510971e-06
7.025275249e-06
6.972073233e-06
6.910372868e-06
6.880572837e-06
6.843863276e-06
6.800497495e-06
6.750707784e-06
6.714576094e-06
6.686315104e-06
6.651571063e-06
6.610632495e-06
6.56377242e-06
2.543680323e-09
3.819914478e-08
9.828130021e-09
3.422289966e-09
2.060871439e-09
1.641771947e-09
1.485781409e-09
1.427909436e-09
1.408025358e-09
1.401420072e-09
1.39853876e-09
1.395986399e-09
1.39337401e-09
1.391284828e-09
1.390668741e-09
1.392711325e-09
1.390880607e-09
1.385135344e-09
1.381954728e-09
1.380150995e-09
1.378885924e-09
1.377811696e-09
1.376818159e-09
1.375886368e-09
1.375020017e-09
1.374223709e-09
1.373490072e-09
1.372808921e-09
1.372179388e-09
1.371602194e-09
1.371065671e-09
1.370560232e-09
1.370085528e-09
1.369641792e-09
1.369234411e-09
1.36886047e-09
1.368516468e-09
1.36819522e-09
1.367897248e-09
1.367619881e-09
1.36736143e-09
1.367118677e-09
1.366885759e-09
1.366656636e-09
1.366443294e-09
1.366262331e-09
1.366104512e-09
1.365964234e-09
1.365833605e-09
1.365716937e-09
1.36560939e-09
1.365513301e-09
1.365420409e-09
1.365323537e-09
1.365017945e-09
1.363100114e-09
1.351749967e-09
1.301324075e-09
1.13153257e-09
9.056067866e-10
5.07440206e-08
1.797015103e-07
4.091485315e-08
1.24422455e-08
7.455531283e-09
6.161594991e-09
5.716201264e-09
5.540029285e-09
5.468187704e-09
5.43743666e-09
5.421951954e-09
5.411084588e-09
5.401647207e-09
5.393683518e-09
5.389372302e-09
5.391920272e-09
5.386242006e-09
5.370717714e-09
5.361818352e-09
5.356586465e-09
5.352867284e-09
5.349658164e-09
5.346682247e-09
5.343918068e-09
5.341429659e-09
5.339183496e-09
5.337102635e-09
5.335198167e-09
5.333529964e-09
5.332051233e-09
5.330682679e-09
5.329393415e-09
5.328222119e-09
5.32721938e-09
5.326368196e-09
5.325602889e-09
5.324917052e-09
5.324251369e-09
5.323676684e-09
5.323104065e-09
5.322667969e-09
5.322312728e-09
5.32192318e-09
5.321567302e-09
5.321188469e-09
5.32090567e-09
5.320640049e-09
5.320482269e-09
5.320339514e-09
5.320226984e-09
5.32011414e-09
5.32005806e-09
5.319949415e-09
5.319915101e-09
5.319344602e-09
5.3161519e-09
5.301053861e-09
5.249651537e-09
5.139367167e-09
5.053559027e-09
2.341500453e-07
2.547004162e-07
7.120250041e-08
2.20025881e-08
1.360559014e-08
1.153882594e-08
1.083762815e-08
1.054418668e-08
1.040745774e-08
1.033955911e-08
1.030263485e-08
1.027880772e-08
1.026028515e-08
1.02447092e-08
1.02337425e-08
1.023169366e-08
1.022126602e-08
1.019958342e-08
1.018687047e-08
1.017906771e-08
1.017305329e-08
1.016746703e-08
1.016209748e-08
1.015708161e-08
1.01525334e-08
1.014842558e-08
1.014474168e-08
1.014143924e-08
1.013846972e-08
1.013583794e-08
1.013350285e-08
1.013142335e-08
1.012965829e-08
1.012816581e-08
1.012685743e-08
1.012576453e-08
1.012488352e-08
1.012406215e-08
1.01233168e-08
1.0122603e-08
1.012209105e-08
1.012168003e-08
1.012134471e-08
1.012115657e-08
1.012098843e-08
1.012094269e-08
1.012088523e-08
1.012099456e-08
1.012106994e-08
1.012127286e-08
1.012146427e-08
1.012181644e-08
1.012202032e-08
1.012246613e-08
1.012239413e-08
1.012136509e-08
1.01171954e-08
1.011483057e-08
1.015936526e-08
1.024919808e-08
8.343619854e-07
3.776846732e-07
1.581817231e-07
3.735336206e-08
1.980147306e-08
1.625253189e-08
1.512885747e-08
1.464591211e-08
1.440690834e-08
1.428276189e-08
1.421654895e-08
1.417890607e-08
1.415461426e-08
1.413667107e-08
1.412400771e-08
1.4119765e-08
1.410996221e-08
1.40923585e-08
1.408302549e-08
1.407767716e-08
1.407313841e-08
1.406831007e-08
1.406328243e-08
1.405843005e-08
1.405401013e-08
1.405003362e-08
1.404649868e-08
1.40433873e-08
1.404064009e-08
1.403825148e-08
1.403618619e-08
1.403440464e-08
1.403294484e-08
1.403176631e-08
1.403080148e-08
1.403009522e-08
1.402961211e-08
1.402919782e-08
1.402884521e-08
1.40285605e-08
1.402842818e-08
1.402837605e-08
1.402843758e-08
1.402864411e-08
1.402891597e-08
1.402930237e-08
1.402969306e-08
1.403020156e-08
1.403066608e-08
1.403129854e-08
1.403192869e-08
1.40327271e-08
1.403337388e-08
1.403436104e-08
1.403526337e-08
1.403766527e-08
1.404578166e-08
1.408191265e-08
1.420092726e-08
1.434252053e-08
2.167118983e-06
8.954289201e-07
6.48044078e-07
1.557027802e-07
3.973555806e-08
2.288019114e-08
1.899428631e-08
1.761932323e-08
1.700775558e-08
1.671366624e-08
1.657100334e-08
1.650273788e-08
1.647017409e-08
1.64541365e-08
1.644699645e-08
1.644769176e-08
1.644605106e-08
1.644056051e-08
1.644057923e-08
1.644218619e-08
1.644283164e-08
1.644197691e-08
1.644015327e-08
1.64380209e-08
1.643597143e-08
1.64341303e-08
1.643253401e-08
1.643118266e-08
1.643005547e-08
1.642914906e-08
1.642843659e-08
1.642789996e-08
1.64275581e-08
1.642739284e-08
1.642736344e-08
1.642749744e-08
1.642776367e-08
1.642806881e-08
1.64283988e-08
1.642877968e-08
1.642924031e-08
1.642973022e-08
1.643028805e-08
1.643092736e-08
1.643161095e-08
1.643236327e-08
1.643312911e-08
1.643394123e-08
1.643472411e-08
1.643562699e-08
1.643653535e-08
1.643756263e-08
1.643850221e-08
1.643975619e-08
1.644133806e-08
1.644547581e-08
1.645801062e-08
1.649969648e-08
1.660398149e-08
1.671015936e-08
2.444330958e-06
2.019956293e-06
1.469889491e-06
7.749040929e-07
1.419094928e-07
4.177724842e-08
2.507984243e-08
2.05573169e-08
1.885156623e-08
1.811155341e-08
1.778104945e-08
1.763712513e-08
1.757786307e-08
1.755597087e-08
1.755112987e-08
1.75562304e-08
1.756278408e-08
1.756892494e-08
1.757842646e-08
1.758753167e-08
1.759403336e-08
1.759780091e-08
1.759973626e-08
1.760077064e-08
1.760144366e-08
1.760200775e-08
1.7602566e-08
1.760314833e-08
1.760376234e-08
1.760442424e-08
1.760512203e-08
1.760585497e-08
1.760663653e-08
1.760746464e-08
1.760831935e-08
1.760921756e-08
1.761014565e-08
1.761106915e-08
1.761198236e-08
1.76129031e-08
1.76138409e-08
1.761476563e-08
1.761570085e-08
1.761664715e-08
1.761758879e-08
1.761854674e-08
1.761950981e-08
1.762048174e-08
1.762142444e-08
1.762240458e-08
1.762337348e-08
1.762440401e-08
1.762540247e-08
1.762664433e-08
1.762836741e-08
1.76323561e-08
1.764302139e-08
1.767273478e-08
1.773498633e-08
1.77923239e-08
1.618499996e-06
3.066357123e-06
2.611314129e-06
2.246153599e-06
6.927035436e-07
1.188474922e-07
4.064985567e-08
2.558134547e-08
2.099944231e-08
1.921790903e-08
1.847195483e-08
1.816163551e-08
1.803903921e-08
1.799572341e-08
1.798566931e-08
1.799117045e-08
1.800201586e-08
1.801503125e-08
1.803071541e-08
1.804530423e-08
1.805651292e-08
1.806414086e-08
1.806919203e-08
1.807276518e-08
1.807556903e-08
1.807796969e-08
1.808013097e-08
1.808212517e-08
1.808399324e-08
1.80857611e-08
1.808744098e-08
1.808904776e-08
1.809059423e-08
1.80920889e-08
1.80935308e-08
1.809493056e-08
1.809628897e-08
1.809759982e-08
1.80988651e-08
1.810009488e-08
1.810129408e-08
1.810245263e-08
1.810358235e-08
1.81046831e-08
1.810574954e-08
1.810679244e-08
1.810781279e-08
1.810881781e-08
1.81097925e-08
1.811075738e-08
1.811169734e-08
1.811265621e-08
1.811361139e-08
1.811475066e-08
1.811634878e-08
1.811956444e-08
1.812693842e-08
1.814411474e-08
1.817487049e-08
1.820090154e-08
1.225027354e-06
2.759033072e-06
4.351627145e-06
4.221518261e-06
2.489189508e-06
4.827646415e-07
9.182961818e-08
3.745720147e-08
2.491474652e-08
2.075097043e-08
1.913606161e-08
1.849168619e-08
1.82429308e-08
1.815473851e-08
1.81305316e-08
1.81327489e-08
1.814475431e-08
1.81608086e-08
1.817957643e-08
1.819733121e-08
1.821166669e-08
1.822209038e-08
1.822943734e-08
1.823483424e-08
1.823910834e-08
1.824272392e-08
1.82459123e-08
1.824878874e-08
1.825142139e-08
1.825385404e-08
1.825611649e-08
1.825823336e-08
1.826022318e-08
1.826210181e-08
1.826387897e-08
1.826556626e-08
1.826717135e-08
1.826869888e-08
1.827015522e-08
1.827154787e-08
1.827288205e-08
1.827415795e-08
1.827538245e-08
1.827655863e-08
1.827768751e-08
1.827877389e-08
1.82798187e-08
1.828082871e-08
1.828180249e-08
1.828274768e-08
1.828366395e-08
1.828457778e-08
1.828550478e-08
1.82865881e-08
1.82880819e-08
1.829072402e-08
1.829583792e-08
1.830565439e-08
1.832067094e-08
1.833223107e-08
2.570326383e-06
1.994133383e-06
6.269088531e-06
6.827077656e-06
5.810002168e-06
2.044927958e-06
2.96843289e-07
7.040386684e-08
3.347368118e-08
2.358255883e-08
2.015985536e-08
1.887532187e-08
1.839567965e-08
1.822628428e-08
1.81751041e-08
1.816933935e-08
1.818000117e-08
1.819695491e-08
1.821711855e-08
1.823659927e-08
1.825293146e-08
1.826536045e-08
1.827445381e-08
1.828124704e-08
1.828661174e-08
1.829108943e-08
1.829497497e-08
1.829842912e-08
1.830154795e-08
1.830439406e-08
1.830701242e-08
1.830943654e-08
1.831169197e-08
1.83138002e-08
1.831577688e-08
1.831763666e-08
1.831939074e-08
1.832104855e-08
1.832261852e-08
1.832410857e-08
1.83255252e-08
1.832687282e-08
1.832815741e-08
1.832938328e-08
1.833055382e-08
1.833167298e-08
1.833274309e-08
1.833376864e-08
1.83347522e-08
1.833569902e-08
1.83366154e-08
1.833752365e-08
1.833846239e-08
1.833955903e-08
1.834105994e-08
1.834348383e-08
1.834757788e-08
1.835423442e-08
1.836304754e-08
1.836903028e-08
4.224004413e-06
1.357058904e-06
6.664031133e-06
1.018592908e-05
9.72755321e-06
5.792565889e-06
1.111557291e-06
1.64040805e-07
5.184715462e-08
2.875571638e-08
2.184934905e-08
1.944993308e-08
1.859094788e-08
1.829149627e-08
1.819638981e-08
1.817636613e-08
1.81829548e-08
1.81992728e-08
1.821986942e-08
1.824031417e-08
1.825799783e-08
1.827195583e-08
1.828250001e-08
1.829051081e-08
1.829683694e-08
1.830206226e-08
1.830653405e-08
1.831045631e-08
1.831395609e-08
1.831711802e-08
1.832000224e-08
1.832265258e-08
1.832510235e-08
1.832737788e-08
1.832949989e-08
1.83314858e-08
1.833334986e-08
1.833510401e-08
1.833675855e-08
1.833832246e-08
1.833980349e-08
1.834120805e-08
1.834254237e-08
1.834381158e-08
1.834502009e-08
1.834617209e-08
1.8347271e-08
1.834832084e-08
1.834932548e-08
1.835029044e-08
1.835122575e-08
1.835215635e-08
1.835313667e-08
1.835429848e-08
1.835589163e-08
1.83583363e-08
1.836214305e-08
1.836771671e-08
1.837436663e-08
1.837825611e-08
6.6104777e-06
6.551629104e-07
4.81084379e-06
1.437737407e-05
1.525139295e-05
1.137571466e-05
3.342117565e-06
4.424955175e-07
9.249526503e-08
3.800912338e-08
2.449770703e-08
2.028244526e-08
1.886186638e-08
1.837895161e-08
1.82216745e-08
1.818011215e-08
1.817935242e-08
1.819342899e-08
1.821360515e-08
1.823445325e-08
1.825304816e-08
1.826820879e-08
1.82800135e-08
1.828916368e-08
1.829643359e-08
1.830240888e-08
1.830746851e-08
1.831185215e-08
1.831571849e-08
1.831917715e-08
1.832230602e-08
1.832516154e-08
1.832778569e-08
1.833021073e-08
1.833246207e-08
1.833456033e-08
1.833652252e-08
1.833836283e-08
1.834009334e-08
1.834172437e-08
1.834326486e-08
1.834472245e-08
1.834610398e-08
1.834741535e-08
1.834866172e-08
1.834984777e-08
1.835097767e-08
1.835205568e-08
1.835308661e-08
1.835407733e-08
1.835504133e-08
1.835600942e-08
1.835704977e-08
1.835830627e-08
1.836003433e-08
1.836260791e-08
1.836642579e-08
1.83716802e-08
1.837752217e-08
1.838043365e-08
9.13866678e-06
1.220023873e-06
3.207779445e-06
1.823978476e-05
2.341352895e-05
1.883690278e-05
8.16253279e-06
1.23907419e-06
1.960105257e-07
5.603801711e-08
2.870583881e-08
2.145524481e-08
1.922769125e-08
1.850142704e-08
1.826205754e-08
1.819022543e-08
1.817783202e-08
1.81875434e-08
1.820621184e-08
1.822682855e-08
1.824589277e-08
1.826193556e-08
1.827479951e-08
1.828499969e-08
1.829320194e-08
1.829995466e-08
1.830563977e-08
1.831051768e-08
1.831477343e-08
1.83185419e-08
1.832192157e-08
1.832498402e-08
1.832778189e-08
1.833035472e-08
1.833273312e-08
1.833494145e-08
1.833699961e-08
1.833892405e-08
1.834072869e-08
1.834242531e-08
1.834402406e-08
1.834553363e-08
1.834696163e-08
1.83483147e-08
1.834959871e-08
1.835081894e-08
1.835198017e-08
1.835308723e-08
1.835414607e-08
1.835516556e-08
1.835616336e-08
1.835717776e-08
1.835828981e-08
1.83596563e-08
1.836153517e-08
1.836426837e-08
1.836817953e-08
1.837332854e-08
1.837874413e-08
1.838097967e-08
1.689718627e-05
2.184750646e-06
2.379767742e-06
1.793973377e-05
3.427333322e-05
2.900718785e-05
1.540519295e-05
3.255153249e-06
4.311980787e-07
9.038524535e-08
3.501895685e-08
2.295002282e-08
1.966877413e-08
1.865541332e-08
1.831939479e-08
1.820964621e-08
1.81813466e-08
1.818440876e-08
1.820031087e-08
1.821994291e-08
1.82389445e-08
1.825546556e-08
1.826910057e-08
1.828017711e-08
1.828923437e-08
1.829675262e-08
1.830308581e-08
1.830849178e-08
1.831316828e-08
1.831727018e-08
1.832091634e-08
1.832419533e-08
1.832717241e-08
1.832989605e-08
1.833240304e-08
1.833472216e-08
1.833687651e-08
1.833888502e-08
1.834076351e-08
1.834252533e-08
1.834418186e-08
1.834574287e-08
1.834721682e-08
1.834861111e-08
1.834993229e-08
1.835118626e-08
1.835237845e-08
1.835351448e-08
1.835460165e-08
1.835565156e-08
1.835668685e-08
1.835775418e-08
1.835894649e-08
1.836043099e-08
1.836246301e-08
1.836535351e-08
1.83693611e-08
1.837444003e-08
1.837952199e-08
1.838114766e-08
2.387199834e-05
3.47495191e-06
2.381059692e-06
1.452872951e-05
4.783410924e-05
4.19553675e-05
2.488338147e-05
7.390743522e-06
9.557644169e-07
1.597189752e-07
4.53547937e-08
2.498606033e-08
2.021720726e-08
1.884717981e-08
1.839565994e-08
1.823967161e-08
1.819114162e-08
1.818527496e-08
1.819713085e-08
1.821495913e-08
1.823328951e-08
1.824979016e-08
1.826380004e-08
1.82754644e-08
1.828519318e-08
1.829338133e-08
1.830032959e-08
1.830626667e-08
1.831138203e-08
1.831583759e-08
1.831976682e-08
1.832327401e-08
1.832643781e-08
1.832931677e-08
1.833195496e-08
1.833438627e-08
1.833663748e-08
1.833873027e-08
1.834068252e-08
1.834250921e-08
1.834422308e-08
1.834583498e-08
1.834735431e-08
1.834878925e-08
1.835014703e-08
1.835143418e-08
1.835265688e-08
1.835382176e-08
1.835493783e-08
1.835602001e-08
1.835709663e-08
1.835822292e-08
1.835950239e-08
1.836110908e-08
1.836329062e-08
1.836632527e-08
1.837041061e-08
1.837541017e-08
1.838017912e-08
1.838120966e-08
3.130899983e-05
5.237249611e-06
2.220672879e-06
1.273840572e-05
6.544414978e-05
5.717843654e-05
3.470676494e-05
1.369857642e-05
2.112656237e-06
3.126385943e-07
6.323055321e-08
2.777571727e-08
2.091092822e-08
1.909661838e-08
1.850072154e-08
1.828488883e-08
1.820949924e-08
1.819148694e-08
1.819765122e-08
1.821271155e-08
1.822967797e-08
1.824559559e-08
1.825950465e-08
1.8271371e-08
1.82814827e-08
1.829014619e-08
1.829759544e-08
1.830400949e-08
1.830954698e-08
1.831435805e-08
1.831857857e-08
1.832232242e-08
1.832567944e-08
1.832871805e-08
1.833149002e-08
1.83340349e-08
1.833638357e-08
1.833856074e-08
1.834058653e-08
1.834247769e-08
1.834424836e-08
1.834591055e-08
1.834747464e-08
1.834894959e-08
1.835034334e-08
1.83516631e-08
1.835291595e-08
1.835410981e-08
1.83552558e-08
1.835637269e-08
1.835749487e-08
1.835868585e-08
1.836005804e-08
1.836178865e-08
1.836411313e-08
1.836727565e-08