/*--------------------------------*- C++ -*----------------------------------*\
  =========                 |
  \\      /  F ield         | OpenFOAM: The Open Source CFD Toolbox
   \\    /   O peration     | Website:  https://openfoam.org
    \\  /    A nd           | Version:  10
     \\/     M anipulation  |
\*---------------------------------------------------------------------------*/
FoamFile
{
    format      ascii;
    class       volScalarField;
    location    "0.02498436188";
    object      CH3_0;
}
// * * * * * * * * * * * * * * * * * * * * * * * * * * * * * * * * * * * * * //

dimensions      [0 0 0 0 0 0 0];

internalField   nonuniform List<scalar> 
5170
(
1.18313246e-09
1.180927235e-09
1.166676085e-09
1.066506073e-09
8.578616488e-11
2.414130699e-09
2.407248375e-09
2.376944855e-09
2.222822542e-09
1.353995334e-09
3.639669104e-09
3.628324523e-09
3.584014845e-09
3.400160157e-09
2.677664196e-09
4.853139531e-09
4.837835029e-09
4.783055813e-09
4.587116548e-09
4.011439365e-09
6.053757471e-09
6.035175207e-09
5.97390689e-09
5.78044865e-09
5.349512622e-09
7.240440133e-09
7.219783211e-09
7.15614022e-09
6.978618611e-09
6.691494695e-09
8.413648178e-09
8.391993887e-09
8.329944118e-09
8.181330923e-09
8.036945857e-09
9.575218364e-09
9.554020638e-09
9.497300124e-09
9.388254137e-09
9.386022672e-09
1.072712051e-08
1.070754529e-08
1.066013241e-08
1.060085473e-08
1.073956166e-08
1.187159712e-08
1.185448814e-08
1.181901544e-08
1.182083729e-08
1.209892787e-08
1.301005595e-08
1.299632001e-08
1.297520393e-08
1.304912323e-08
1.346447125e-08
1.414287829e-08
1.413363537e-08
1.413183718e-08
1.428571483e-08
1.483511241e-08
1.527056536e-08
1.526694246e-08
1.529000969e-08
1.553076235e-08
1.620953383e-08
1.639329343e-08
1.639649894e-08
1.644944937e-08
1.67839517e-08
1.758607435e-08
1.751096105e-08
1.752246937e-08
1.76100762e-08
1.804416311e-08
1.896256097e-08
1.862305862e-08
1.86445203e-08
1.877329207e-08
1.931107277e-08
2.03351223e-08
1.97293975e-08
1.976264601e-08
1.993753328e-08
2.058170809e-08
2.170430639e-08
2.082996165e-08
2.087711508e-08
2.110593023e-08
2.185731218e-08
2.306517846e-08
2.192484306e-08
2.198856395e-08
2.228034303e-08
2.314410984e-08
2.444104514e-08
2.302669335e-08
2.316155053e-08
2.386305476e-08
2.692528675e-08
3.687933505e-08
1.055230291e-18
0
0
0
0
1.277474727e-18
0
0
0
0
3.002338302e-19
1.546250391e-19
0
0
0
0
9.791933299e-19
2.440162548e-19
3.877098936e-19
1.972479904e-17
0
0
0
0
0
0
5.279486154e-14
0
0
1.283273169e-13
1.622004603e-13
0
0
1.354560094e-12
6.026988794e-10
2.802975487e-10
1.173366332e-11
1.055288185e-11
2.436105742e-10
0
0
2.560189031e-10
1.844646525e-10
1.337820072e-10
0
0
1.515552808e-08
0
0
0
3.03646205e-11
8.162658237e-09
0
9.018151451e-11
1.587558103e-11
4.320414806e-11
0
0
0
3.492422828e-10
0
0
0
3.773471498e-11
2.433658873e-09
5.952665485e-10
3.84021137e-11
5.067630351e-12
9.827561432e-10
5.126055795e-09
2.585575129e-09
4.760304755e-10
4.895963954e-10
2.591800862e-09
3.613403378e-09
2.678284162e-09
2.227946674e-09
2.191647198e-09
3.068887159e-09
3.943353239e-09
2.149437745e-09
4.373962245e-09
4.350761217e-09
3.019560033e-09
6.422287301e-09
2.895321077e-09
3.367235206e-09
3.478527331e-09
3.63487386e-09
4.454247882e-09
8.131088829e-09
3.455217875e-09
2.73297763e-09
5.893000737e-09
4.126716071e-09
2.67257024e-07
1.168812689e-07
2.08060947e-08
4.408450423e-09
3.520564823e-10
2.43684684e-08
2.667189884e-08
6.350104411e-08
6.082463058e-07
6.646144172e-06
2.658499139e-08
3.497471436e-08
1.386923962e-07
1.104663689e-06
7.964855697e-06
3.026599738e-08
4.938525811e-08
2.307956415e-07
1.382772081e-06
7.774736395e-06
3.600764285e-08
7.023210441e-08
3.302059204e-07
1.555682714e-06
7.262011977e-06
4.570138471e-08
1.077427885e-07
5.506779662e-07
1.717462048e-06
6.964717166e-06
5.949190287e-08
1.475015814e-07
5.697128424e-07
1.908011411e-06
7.020479638e-06
7.851621031e-08
1.960700455e-07
6.450826501e-07
2.161518268e-06
7.381476765e-06
1.035933627e-07
2.520947151e-07
7.589273293e-07
2.442916126e-06
7.686573476e-06
1.372927684e-07
3.217363863e-07
9.06246517e-07
2.739955856e-06
7.991405165e-06
1.79659576e-07
3.824590557e-07
1.078519257e-06
3.026613123e-06
8.171224144e-06
2.409140155e-07
4.882734896e-07
1.289802237e-06
3.376365499e-06
8.632786281e-06
3.021987432e-07
6.168711664e-07
1.536499759e-06
3.772279321e-06
9.150770149e-06
4.001391655e-07
7.847172146e-07
1.813453088e-06
4.177890548e-06
9.605004597e-06
5.514546873e-07
9.888457643e-07
2.12269585e-06
4.632292856e-06
1.020120487e-05
7.693455752e-07
1.252144976e-06
2.492054948e-06
5.167321928e-06
1.093236033e-05
1.042331906e-06
1.566750978e-06
2.911153783e-06
5.737184686e-06
1.160731984e-05
1.41790677e-06
2.003806759e-06
3.521154702e-06
6.570416673e-06
1.282902489e-05
1.968967859e-06
2.633962267e-06
4.36339201e-06
7.678975396e-06
1.43399695e-05
2.653970729e-06
3.41799784e-06
5.503118606e-06
9.557976632e-06
1.778019457e-05
3.700302005e-06
4.632381498e-06
7.002258216e-06
1.157889091e-05
1.997657886e-05
4.896601566e-06
5.826348309e-06
8.022259115e-06
1.180629279e-05
1.775349506e-05
5.668220404e-06
6.273660168e-06
7.622710204e-06
9.720257035e-06
1.259108749e-05
4.742474375e-06
4.992772814e-06
5.520450951e-06
6.268923997e-06
7.168623432e-06
2.887879608e-06
2.952334206e-06
3.074285551e-06
3.217226329e-06
3.357300475e-06
1.406419529e-06
1.412232557e-06
1.41694411e-06
1.414176594e-06
1.394873066e-06
5.928679803e-07
5.894671425e-07
5.799927503e-07
5.631702113e-07
5.386514224e-07
2.45899409e-07
2.434858929e-07
2.374209473e-07
2.278655475e-07
2.146668185e-07
1.011025123e-07
9.996864174e-08
9.711135869e-08
9.279898413e-08
8.709775705e-08
4.176488542e-08
4.128268199e-08
4.017108734e-08
3.840817288e-08
3.616765806e-08
1.768148471e-08
1.753550565e-08
1.721877217e-08
1.65174504e-08
1.556249315e-08
7.40386319e-09
7.347818733e-09
7.218909976e-09
7.066511822e-09
6.814829294e-09
3.62048569e-09
3.591650902e-09
3.525202976e-09
3.426137154e-09
3.300034046e-09
1.971793764e-09
1.961942621e-09
1.937954002e-09
1.905920535e-09
1.865983049e-09
1.39037332e-09
1.38994897e-09
1.388796365e-09
1.387556009e-09
1.387041682e-09
1.303271009e-09
1.308495986e-09
1.320076081e-09
1.338523179e-09
1.363752708e-09
1.442223919e-09
1.452061925e-09
1.473959384e-09
1.507204372e-09
1.551170144e-09
1.613883241e-09
1.627084682e-09
1.656118941e-09
1.700801026e-09
1.760165756e-09
1.644747906e-09
1.66136846e-09
1.69791723e-09
1.753068411e-09
1.827112902e-09
1.49615941e-09
1.513422786e-09
1.551104063e-09
1.607974088e-09
1.684139952e-09
1.137679553e-09
1.152514223e-09
1.184312811e-09
1.231225803e-09
1.292398293e-09
6.732042466e-10
6.843686255e-10
7.08310548e-10
7.439839426e-10
7.910876036e-10
2.463879795e-10
2.548650445e-10
2.732044e-10
3.010493105e-10
3.387236653e-10
5.935489604e-11
6.809074463e-11
7.70867495e-11
8.955560394e-11
1.054929076e-10
0
0
0
0
0
0
0
0
0
0
0
0
0
0
0
0
0
0
0
0
0
0
0
0
0
0
0
0
0
0
4.393912253e-15
0
0
4.463658682e-14
0
9.920731858e-12
8.246429774e-12
5.251193105e-12
2.585100634e-12
5.814966597e-13
1.371922255e-10
1.347516564e-10
1.304255657e-10
1.218421617e-10
1.105430681e-10
2.74500534e-10
2.697212208e-10
2.596390491e-10
2.449461526e-10
2.261896537e-10
3.873663986e-10
3.811227561e-10
3.678606806e-10
3.484690222e-10
3.235667602e-10
4.685545157e-10
4.607343084e-10
4.440795046e-10
4.19703542e-10
3.883635042e-10
5.449029762e-10
5.356682351e-10
5.159983092e-10
4.871874679e-10
4.500695723e-10
6.890616645e-10
6.780873289e-10
6.54775857e-10
6.20773094e-10
5.773262784e-10
9.934813968e-10
9.793695734e-10
9.493510503e-10
9.054016654e-10
8.489009879e-10
1.534718278e-09
1.515259149e-09
1.47372898e-09
1.412529054e-09
1.333109577e-09
2.304567464e-09
2.278426489e-09
2.222526527e-09
2.139999397e-09
2.033073806e-09
3.188438151e-09
3.161182736e-09
3.103175031e-09
3.017773428e-09
2.906630039e-09
4.141327637e-09
4.115601678e-09
4.061227995e-09
3.981855058e-09
3.879687666e-09
5.000539432e-09
4.975100932e-09
4.921392869e-09
4.842867615e-09
4.738865522e-09
5.690836176e-09
5.667991627e-09
5.619539643e-09
5.548423293e-09
5.456213953e-09
7.060454395e-09
7.035301017e-09
6.98195181e-09
6.903366375e-09
6.800737793e-09
9.13103472e-09
9.095940093e-09
9.021162387e-09
8.910218665e-09
8.764031058e-09
1.113745221e-08
1.108693274e-08
1.097987302e-08
1.082328689e-08
1.062046797e-08
1.237888207e-08
1.233429337e-08
1.223963431e-08
1.209979073e-08
1.191562283e-08
1.32966279e-08
1.326795268e-08
1.320916426e-08
1.312627126e-08
1.302442726e-08
1.467378236e-08
1.466214695e-08
1.464007702e-08
1.461140541e-08
1.458041735e-08
2.760945517e-05
3.162463905e-05
2.658416764e-05
2.165033917e-05
1.927804068e-05
1.847992851e-05
1.851774972e-05
1.799397716e-05
1.768824285e-05
1.699112122e-05
1.736059648e-05
1.772947402e-05
1.790643485e-05
1.845424229e-05
1.915200584e-05
1.965088028e-05
2.085679746e-05
2.350705783e-05
2.866260955e-05
2.997421934e-05
2.367937952e-05
1.502559521e-05
7.832406603e-06
3.442808824e-06
1.377452789e-06
5.205041282e-07
2.056005319e-07
8.320768986e-08
3.461896925e-08
1.489037529e-08
6.584582718e-09
3.213743795e-09
1.840691392e-09
1.388272582e-09
1.383948757e-09
1.585237982e-09
1.807423769e-09
1.887366809e-09
1.744072451e-09
1.34307568e-09
8.312040496e-10
3.712806901e-10
1.203090109e-10
9.786390905e-13
0
0
0
0
0
0
4.834170235e-14
1.012803536e-10
2.109005907e-10
3.032408517e-10
3.629513434e-10
4.203685394e-10
5.421790816e-10
8.027120623e-10
1.267357404e-09
1.944991086e-09
2.813697672e-09
3.794209456e-09
4.641340238e-09
5.378488412e-09
6.712812158e-09
8.637991782e-09
1.045041839e-08
1.175942736e-08
1.293946179e-08
1.455277194e-08
7.097433007e-05
6.767102026e-06
2.512741835e-07
7.074904917e-08
8.486069585e-09
9.656129821e-05
0.0006667019464
3.832058198e-05
1.148699633e-06
1.173612563e-07
7.715529823e-05
0.0003343712003
3.374726315e-05
1.853274246e-06
3.851076558e-07
5.88836667e-05
0.0002352354949
0.0002707680856
2.066466027e-05
1.375023218e-06
5.148068087e-05
0.0002328704323
0.0009310536299
9.153297709e-05
6.453674689e-06
4.794913079e-05
0.0002195859944
0.0009195463199
0.0001176086417
1.084149701e-05
4.634174961e-05
0.0002036280867
0.000735076579
0.0001110358145
1.270764287e-05
4.242341542e-05
0.0001659523378
0.0005313918658
0.0001405819207
1.865016416e-05
4.002699012e-05
0.0001472800905
0.0004804574819
0.0006560326149
9.088678764e-05
3.648841981e-05
0.0001305328342
0.0004256235738
0.0008649116973
0.000142774424
3.637791901e-05
0.0001235337272
0.0003944052705
0.0009106206102
0.0001656605867
3.600125054e-05
0.0001178807859
0.0003692693702
0.0008586263842
0.0001773602846
3.521660636e-05
0.000111847899
0.0003325465267
0.0007937277632
0.000385686597
3.539096247e-05
0.0001075160365
0.000307264254
0.0007531242664
0.0006925272995
3.540074866e-05
0.0001022525886
0.0002870815841
0.00070081632
0.0007904839611
3.552939194e-05
9.819831949e-05
0.0002718070357
0.0006509006688
0.0008392460632
3.65378667e-05
9.623271195e-05
0.0002593769043
0.0006101213908
0.0008471172514
4.072199665e-05
0.0001057809461
0.0002725466235
0.0006221436346
0.0008183214838
4.902513156e-05
0.0001255931087
0.0003158780403
0.0006821228756
0.0007296808614
4.830719492e-05
0.0001099715349
0.0002446677553
0.0004861177898
0.0006064337658
3.382406126e-05
5.936606437e-05
9.825595228e-05
0.0001449308865
0.0001634272652
1.902223781e-05
2.607446719e-05
3.258703745e-05
3.568460162e-05
3.177690859e-05
8.96882103e-06
1.01276058e-05
1.017554894e-05
8.908401169e-06
6.650866547e-06
3.646524007e-06
3.615344888e-06
3.207312107e-06
2.527947761e-06
1.765408134e-06
1.389170146e-06
1.283607923e-06
1.078041264e-06
8.227124374e-07
5.725041268e-07
5.07587886e-07
4.522736523e-07
3.71844583e-07
2.832387335e-07
2.011494703e-07
1.975674027e-07
1.737761537e-07
1.421554393e-07
1.09932875e-07
8.054664943e-08
7.960237851e-08
6.996061216e-08
5.808968784e-08
4.539564708e-08
3.447415065e-08
3.302998601e-08
2.953943926e-08
2.508266067e-08
1.984542338e-08
1.495436006e-08
1.421637887e-08
1.233907283e-08
1.075721889e-08
8.985855993e-09
7.129179614e-09
6.345721779e-09
5.717437967e-09
4.945768446e-09
4.282550148e-09
3.600742012e-09
3.129429636e-09
2.896754269e-09
2.597104525e-09
2.314815813e-09
2.057595879e-09
1.815383573e-09
1.746061739e-09
1.67153705e-09
1.594331952e-09
1.531411732e-09
1.391891192e-09
1.398710358e-09
1.412767659e-09
1.451060068e-09
1.516256602e-09
1.409159282e-09
1.470835131e-09
1.555954577e-09
1.668540061e-09
1.817943291e-09
1.628778123e-09
1.729946906e-09
1.870731389e-09
2.047001514e-09
2.259604739e-09
1.872459715e-09
2.011948323e-09
2.192820816e-09
2.418973274e-09
2.68846162e-09
1.976120406e-09
2.149123859e-09
2.362977205e-09
2.586582577e-09
2.815212869e-09
1.836282544e-09
2.003045748e-09
2.187116391e-09
2.379586272e-09
2.57597156e-09
1.426139286e-09
1.567178639e-09
1.71786181e-09
1.875324603e-09
2.044686324e-09
8.999742898e-10
1.018870481e-09
1.148811579e-09
1.299561617e-09
1.440415609e-09
4.289352535e-10
5.391091322e-10
6.353213976e-10
7.278387825e-10
8.178571512e-10
1.464699534e-10
1.911624259e-10
2.366491768e-10
2.82320212e-10
3.285510744e-10
3.395935201e-12
1.047616263e-11
1.986003375e-11
3.262743383e-11
4.784028073e-11
0
0
0
0
0
0
0
0
0
0
0
0
0
0
0
0
0
0
0
0
0
0
0
0
0
0
0
0
0
0
1.889104568e-13
2.245052156e-13
0
0
0
8.527787251e-11
6.170072522e-11
4.0741847e-11
2.320482314e-11
9.846435292e-12
1.85208397e-10
1.449787432e-10
1.065862209e-10
7.14728547e-11
4.118283615e-11
2.696161557e-10
2.148356924e-10
1.600526366e-10
1.083420127e-10
6.302724733e-11
3.2172508e-10
2.539960443e-10
1.878081544e-10
1.261512847e-10
7.165235005e-11
3.72334165e-10
2.93629537e-10
2.1797569e-10
1.490691359e-10
9.016274215e-11
4.844898606e-10
3.915925616e-10
3.006989293e-10
2.158931614e-10
1.411521632e-10
7.262266062e-10
6.013429396e-10
4.760568776e-10
3.545590026e-10
2.415288757e-10
1.157680452e-09
9.753182642e-10
7.875734441e-10
5.993036807e-10
4.183254439e-10
1.798678949e-09
1.558443561e-09
1.310538424e-09
1.069452346e-09
8.42628389e-10
2.656133475e-09
2.40293696e-09
2.147500207e-09
1.908166845e-09
1.686964608e-09
3.644767059e-09
3.405390239e-09
3.164750452e-09
2.92965008e-09
2.712681066e-09
4.475455654e-09
4.278403214e-09
3.986255469e-09
3.730709535e-09
3.504997732e-09
5.243387159e-09
5.025837856e-09
4.806451118e-09
4.592102492e-09
4.387212395e-09
6.556687266e-09
6.303872751e-09
6.045095035e-09
5.779845126e-09
5.509563985e-09
8.41540497e-09
8.046870049e-09
7.660058606e-09
7.254028311e-09
6.838740599e-09
1.016097548e-08
9.690845886e-09
9.199245171e-09
8.730579163e-09
8.306026169e-09
1.148787293e-08
1.106872639e-08
1.063906231e-08
1.028940214e-08
1.000790851e-08
1.276835522e-08
1.254753607e-08
1.237695936e-08
1.225147656e-08
1.217592827e-08
1.446719777e-08
1.437595651e-08
1.434683635e-08
1.437662305e-08
1.44055355e-08
6.24108671e-11
3.595999578e-09
4.546406221e-10
0
0
0
0
0
0
0
0
0
0
0
0
0
0
0
0
0
0
0
0
0
0
0
0
0
0
0
0
0
0
0
0
0
0
0
0
0
0
0
0
0
0
0
0
0
0
0
0
0
0
0
0
0
0
0
0
0
2.407403534e-09
2.126920576e-08
1.703008359e-09
1.272281872e-10
1.508333824e-12
0
0
0
0
0
0
0
0
0
0
0
0
0
0
0
0
0
0
0
0
0
0
0
0
0
0
0
0
0
0
0
0
0
0
0
0
0
0
0
0
0
0
0
0
0
0
0
0
0
0
0
0
0
0
0
1.359834294e-08
6.687576564e-10
1.222328895e-09
4.162022771e-10
2.765750512e-10
2.433890822e-10
2.329711951e-10
2.28451844e-10
2.25810686e-10
2.237385331e-10
2.21802854e-10
2.199115008e-10
2.181454894e-10
2.166760685e-10
2.157290617e-10
2.154779258e-10
2.141455184e-10
2.114042793e-10
2.092685545e-10
2.077290777e-10
2.06628718e-10
2.057953089e-10
2.051155892e-10
2.045330279e-10
2.040215396e-10
2.035640772e-10
2.031532769e-10
2.027824165e-10
2.024443222e-10
2.021382715e-10
2.01861036e-10
2.016089096e-10
2.01385553e-10
2.0118646e-10
2.010043841e-10
2.008434707e-10
2.007018552e-10
2.00566187e-10
2.004357162e-10
2.003116587e-10
2.002024913e-10
2.001023104e-10
2.000125102e-10
1.999357787e-10
1.998642253e-10
1.998002659e-10
1.997395647e-10
1.996902823e-10
1.996401998e-10
1.996024764e-10
1.995678064e-10
1.995441079e-10
1.99511312e-10
1.99492201e-10
1.994174953e-10
1.991804429e-10
1.984270324e-10
1.970357875e-10
1.980670257e-10
2.047923686e-10
9.50275394e-08
3.879220769e-09
1.99205464e-09
8.775980081e-10
6.60438121e-10
6.025764924e-10
5.806011057e-10
5.694660577e-10
5.626774406e-10
5.579411345e-10
5.542862717e-10
5.512417044e-10
5.486543277e-10
5.465599835e-10
5.4512854e-10
5.445450806e-10
5.425280648e-10
5.387019381e-10
5.356803748e-10
5.334699814e-10
5.318648992e-10
5.30635238e-10
5.296224339e-10
5.287477788e-10
5.279782408e-10
5.272897956e-10
5.266712763e-10
5.261155754e-10
5.256132264e-10
5.251612316e-10
5.247539365e-10
5.243859713e-10
5.240601766e-10
5.237719389e-10
5.235129959e-10
5.232881095e-10
5.230927727e-10
5.229088063e-10
5.227341465e-10
5.225720263e-10
5.224290356e-10
5.222983355e-10
5.221852072e-10
5.220913801e-10
5.220092345e-10
5.219400359e-10
5.21876419e-10
5.218265462e-10
5.217760288e-10
5.217463292e-10
5.217214572e-10
5.217147409e-10
5.216949563e-10
5.217056222e-10
5.216842767e-10
5.217070618e-10
5.219811284e-10
5.242925142e-10
5.342126367e-10
5.484751378e-10
5.107794662e-07
3.087387586e-08
0
1.791080593e-09
1.052916085e-09
8.973681159e-10
8.553869458e-10
8.381062145e-10
8.287123709e-10
8.227444994e-10
8.186060035e-10
8.155802604e-10
8.133553014e-10
8.118019032e-10
8.109131301e-10
8.106847629e-10
8.089639498e-10
8.054985873e-10
8.026911233e-10
8.006126309e-10
7.991072919e-10
7.979623435e-10
7.970230747e-10
7.962127928e-10
7.954985905e-10
7.948609441e-10
7.942894901e-10
7.937771102e-10
7.933166741e-10
7.929043206e-10
7.925339303e-10
7.922011041e-10
7.919066228e-10
7.916471986e-10
7.914161505e-10
7.912162804e-10
7.910428059e-10
7.908823493e-10
7.907321401e-10
7.905962421e-10
7.904773634e-10
7.903687584e-10
7.902759835e-10
7.901998068e-10
7.901356121e-10
7.900844251e-10
7.900410136e-10
7.900072723e-10
7.899750478e-10
7.899624537e-10
7.899560114e-10
7.899671938e-10
7.899697941e-10
7.900071565e-10
7.900602738e-10
7.903403213e-10
7.914201218e-10
7.956354125e-10
8.073056181e-10
8.203329052e-10
1.020353886e-06
1.663049109e-07
1.367545253e-08
5.142529258e-09
1.588003463e-09
1.098279488e-09
1.016456325e-09
9.922382792e-10
9.815266612e-10
9.756296669e-10
9.719789418e-10
9.695915129e-10
9.680528992e-10
9.671817632e-10
9.668918501e-10
9.670730445e-10
9.659237399e-10
9.633091154e-10
9.611392559e-10
9.595258748e-10
9.583765522e-10
9.575245212e-10
9.568370785e-10
9.562478345e-10
9.557267622e-10
9.552618437e-10
9.548469381e-10
9.544760426e-10
9.541437738e-10
9.538475606e-10
9.535819668e-10
9.533438302e-10
9.531326723e-10
9.52946293e-10
9.527798903e-10
9.52634594e-10
9.525071803e-10
9.523912694e-10
9.522850058e-10
9.52190666e-10
9.521089111e-10
9.520345203e-10
9.519707981e-10
9.519169948e-10
9.518705487e-10
9.518335739e-10
9.518047596e-10
9.517832394e-10
9.517636988e-10
9.517552001e-10
9.517508454e-10
9.517595014e-10
9.51765202e-10
9.517991073e-10
9.51870507e-10
9.521753443e-10
9.532337005e-10
9.567044488e-10
9.646594275e-10
9.724882612e-10
1.086810308e-06
4.529656322e-07
8.323122753e-08
6.991368048e-09
3.00822101e-09
1.381273132e-09
1.126039658e-09
1.072536053e-09
1.055174033e-09
1.047747285e-09
1.044054592e-09
1.042049234e-09
1.040949348e-09
1.040444169e-09
1.040391826e-09
1.040661521e-09
1.039789479e-09
1.037723481e-09
1.035995862e-09
1.034724862e-09
1.033851122e-09
1.033235924e-09
1.032760277e-09
1.032359816e-09
1.032007479e-09
1.031694227e-09
1.031415104e-09
1.031165789e-09
1.030943004e-09
1.030743875e-09
1.030565032e-09
1.030404536e-09
1.030260989e-09
1.030132895e-09
1.030017584e-09
1.029914803e-09
1.029822918e-09
1.029739336e-09
1.029663067e-09
1.0295948e-09
1.029534373e-09
1.02947912e-09
1.029430334e-09
1.029387169e-09
1.029348204e-09
1.029314546e-09
1.029286047e-09
1.029262952e-09
1.029242382e-09
1.029227007e-09
1.029213852e-09
1.029208318e-09
1.02920229e-09
1.029213568e-09
1.029253425e-09
1.029439142e-09
1.03007087e-09
1.031962828e-09
1.035813846e-09
1.039333799e-09
1.475923121e-06
6.148671618e-07
3.119570347e-07
4.028850227e-08
9.622143506e-09
3.101457722e-09
1.367884376e-09
1.139891924e-09
1.093274414e-09
1.079046116e-09
1.073574612e-09
1.071210331e-09
1.070163638e-09
1.069783795e-09
1.069802378e-09
1.070041944e-09
1.0692238e-09
1.067355967e-09
1.065770813e-09
1.064593369e-09
1.063794183e-09
1.063256713e-09
1.062864912e-09
1.062548425e-09
1.062276758e-09
1.06203846e-09
1.061827904e-09
1.061640653e-09
1.061473575e-09
1.06132396e-09
1.061189287e-09
1.06106784e-09
1.060958065e-09
1.06085879e-09
1.060768426e-09
1.060686287e-09
1.06061138e-09
1.060542491e-09
1.060479035e-09
1.06042092e-09
1.060367796e-09
1.060318483e-09
1.060273213e-09
1.060231601e-09
1.060193089e-09
1.060157841e-09
1.060125445e-09
1.060096295e-09
1.06006943e-09
1.060045473e-09
1.060023153e-09
1.06000462e-09
1.059985796e-09
1.059974004e-09
1.059971159e-09
1.060025737e-09
1.060256449e-09
1.060964008e-09
1.062339439e-09
1.063578707e-09
8.065143197e-06
9.121037818e-07
7.85237777e-07
1.938435682e-07
1.972742266e-08
1.348390365e-08
2.113534496e-09
1.242298463e-09
1.127072693e-09
1.097547238e-09
1.087075469e-09
1.082860816e-09
1.081133606e-09
1.080513779e-09
1.080430886e-09
1.080579989e-09
1.079723688e-09
1.077879489e-09
1.07628765e-09
1.075074965e-09
1.074229968e-09
1.073657561e-09
1.073248934e-09
1.072929893e-09
1.072664214e-09
1.072436408e-09
1.072238418e-09
1.072064599e-09
1.071910699e-09
1.071773318e-09
1.07164993e-09
1.071538537e-09
1.071437432e-09
1.071345426e-09
1.071261173e-09
1.071183876e-09
1.071112637e-09
1.071046675e-09
1.070985407e-09
1.070928477e-09
1.070875489e-09
1.070825825e-09
1.070779337e-09
1.07073573e-09
1.070694727e-09
1.070656239e-09
1.070619979e-09
1.07058596e-09
1.070553837e-09
1.070523705e-09
1.070494925e-09
1.070467835e-09
1.070439986e-09
1.07041138e-09
1.070376423e-09
1.070342147e-09
1.070334433e-09
1.070441746e-09
1.070735638e-09
1.071067514e-09
1.591035081e-05
1.403166043e-06
1.25764709e-06
5.789574238e-07
8.833084805e-08
7.890911287e-09
3.550619337e-09
1.52851867e-09
1.199411902e-09
1.124024676e-09
1.099681991e-09
1.090298833e-09
1.08645406e-09
1.084930899e-09
1.084444195e-09
1.08438576e-09
1.083426908e-09
1.081533299e-09
1.079886621e-09
1.078604482e-09
1.077680537e-09
1.077033912e-09
1.076565344e-09
1.076201315e-09
1.075902616e-09
1.075650823e-09
1.075435539e-09
1.075249276e-09
1.075086194e-09
1.07494179e-09
1.074812849e-09
1.074696853e-09
1.074591854e-09
1.074496322e-09
1.074408927e-09
1.074328649e-09
1.074254585e-09
1.074185956e-09
1.074122125e-09
1.074062589e-09
1.074006889e-09
1.073954572e-09
1.073905337e-09
1.073858882e-09
1.073814961e-09
1.073773398e-09
1.073733996e-09
1.073696621e-09
1.073661038e-09
1.073627146e-09
1.073594481e-09
1.07356246e-09
1.073528794e-09
1.073489441e-09
1.073434417e-09
1.073352198e-09
1.073235987e-09
1.073109051e-09
1.073031417e-09
1.073081426e-09
2.165983261e-05
2.026268511e-06
1.184338793e-06
1.425849125e-06
3.078192634e-07
3.048004787e-08
1.339045575e-08
2.288637107e-09
1.295481224e-09
1.147845811e-09
1.108790266e-09
1.094998086e-09
1.089483012e-09
1.087214411e-09
1.086348528e-09
1.086072751e-09
1.084993363e-09
1.083026026e-09
1.081314795e-09
1.079964074e-09
1.078964308e-09
1.07824146e-09
1.077704091e-09
1.077281757e-09
1.076935042e-09
1.076644662e-09
1.076399092e-09
1.07618924e-09
1.076007604e-09
1.075848343e-09
1.07570717e-09
1.075580903e-09
1.075467148e-09
1.075364029e-09
1.075270034e-09
1.075183931e-09
1.075104695e-09
1.075031452e-09
1.074963471e-09
1.074900143e-09
1.074840935e-09
1.0747854e-09
1.074733164e-09
1.0746839e-09
1.074637339e-09
1.074593233e-09
1.074551396e-09
1.07451164e-09
1.074473718e-09
1.074437404e-09
1.074402205e-09
1.074367001e-09
1.074329101e-09
1.074282355e-09
1.074214555e-09
1.074108623e-09
1.073950797e-09
1.073751015e-09
1.07357286e-09
1.073564525e-09
2.421184335e-05
2.586757573e-06
9.197826253e-07
2.797575342e-06
8.42506751e-07
9.798770251e-08
8.531161982e-09
3.520138383e-09
1.504118285e-09
1.188500736e-09
1.121863764e-09
1.101146277e-09
1.093019261e-09
1.08948693e-09
1.087938627e-09
1.087278146e-09
1.085991988e-09
1.083911682e-09
1.082126422e-09
1.080713243e-09
1.079648816e-09
1.078858843e-09
1.078256805e-09
1.077775433e-09
1.077376588e-09
1.077041813e-09
1.07675995e-09
1.076521272e-09
1.076316897e-09
1.076139504e-09
1.075983558e-09
1.075845007e-09
1.075720861e-09
1.075608848e-09
1.07550718e-09
1.075414407e-09
1.075329335e-09
1.075250955e-09
1.075178427e-09
1.075111039e-09
1.075048191e-09
1.074989388e-09
1.074934208e-09
1.074882282e-09
1.074833302e-09
1.074786964e-09
1.074743061e-09
1.074701367e-09
1.074661612e-09
1.074623458e-09
1.074586268e-09
1.074548489e-09
1.074506799e-09
1.074453878e-09
1.074376795e-09
1.07425819e-09
1.074085507e-09
1.073869435e-09
1.073675193e-09
1.07367841e-09
5.593624738e-05
6.560219041e-06
1.097468459e-06
3.698232007e-06
1.913652247e-06
2.624549093e-07
2.094643846e-08
7.122554679e-09
1.934295158e-09
1.278731776e-09
1.149842838e-09
1.11303752e-09
1.098983035e-09
1.09276223e-09
1.089869947e-09
1.088509731e-09
1.086866366e-09
1.084615501e-09
1.082745712e-09
1.081279036e-09
1.080165533e-09
1.079323003e-09
1.078666681e-09
1.078132033e-09
1.077682795e-09
1.07730235e-09
1.076981284e-09
1.076710556e-09
1.076480698e-09
1.076283126e-09
1.076110989e-09
1.075959183e-09
1.075823973e-09
1.075702582e-09
1.075592875e-09
1.075493153e-09
1.075402034e-09
1.075318365e-09
1.075241188e-09
1.075169697e-09
1.075103219e-09
1.075041194e-09
1.074983148e-09
1.074928661e-09
1.074877374e-09
1.074828946e-09
1.074783142e-09
1.0747397e-09
1.074698316e-09
1.074658512e-09
1.074619439e-09
1.074579164e-09
1.07453368e-09
1.074474912e-09
1.074390088e-09
1.074263304e-09
1.074085191e-09
1.073869757e-09
1.073682259e-09
1.07372241e-09
0.0001096444698
1.452710956e-05
1.854921803e-06
3.323253037e-06
3.871063056e-06
6.210925428e-07
5.437066235e-08
1.491728925e-08
2.700929522e-09
1.365540698e-09
1.164847425e-09
1.118095078e-09
1.101760358e-09
1.094587541e-09
1.091128343e-09
1.089393229e-09
1.087514213e-09
1.085144351e-09
1.083222394e-09
1.081730229e-09
1.080593116e-09
1.079719971e-09
1.079026359e-09
1.078450599e-09
1.077958641e-09
1.077536184e-09
1.077176485e-09
1.076872525e-09
1.076615459e-09
1.076396149e-09
1.076206681e-09
1.076040878e-09
1.075894158e-09
1.07576313e-09
1.075645235e-09
1.075538473e-09
1.075441249e-09
1.07535226e-09
1.075270431e-09
1.075194858e-09
1.075124794e-09
1.075059601e-09
1.074998741e-09
1.074941743e-09
1.074888204e-09
1.074837764e-09
1.074790144e-09
1.07474504e-09
1.07470209e-09
1.074660645e-09
1.074619604e-09
1.074576672e-09
1.074527218e-09
1.074462697e-09
1.074370898e-09
1.074237912e-09
1.074057791e-09
1.073847646e-09
1.073672846e-09
1.07376209e-09
0.0001393394918
2.102841268e-05
2.862620233e-06
2.82521104e-06
6.706812196e-06
1.134841248e-06
1.075979415e-07
1.701404981e-08
3.887678539e-09
1.550912752e-09
1.200098225e-09
1.129680262e-09
1.107169423e-09
1.097511279e-09
1.092796627e-09
1.090360038e-09
1.088084804e-09
1.085535115e-09
1.083554224e-09
1.082053555e-09
1.080918241e-09
1.080039896e-09
1.079331361e-09
1.078732715e-09
1.078211928e-09
1.077756993e-09
1.077364101e-09
1.077029153e-09
1.076745196e-09
1.076503646e-09
1.076296189e-09
1.076115863e-09
1.075957292e-09
1.075816441e-09
1.075690274e-09
1.075576454e-09
1.075473148e-09
1.075378886e-09
1.075292465e-09
1.075212881e-09
1.0751393e-09
1.075071003e-09
1.075007387e-09
1.074947935e-09
1.074892209e-09
1.074839826e-09
1.074790448e-09
1.074743709e-09
1.074699173e-09
1.074655999e-09
1.074612806e-09
1.074566937e-09
1.074513272e-09
1.07444308e-09
1.074344869e-09
1.074206833e-09
1.074026255e-09
1.0738226e-09
1.073661502e-09
1.073799538e-09
0.0001621304444
2.64445844e-05
3.961064273e-06
2.849193866e-06
9.417863417e-06
1.511287044e-06
1.519235225e-07
2.135369079e-08
6.284332051e-09
2.187357782e-09
1.335160644e-09
1.166739208e-09
1.12092623e-09
1.103625713e-09
1.095717008e-09
1.091748811e-09
1.088697159e-09
1.085818458e-09
1.083736126e-09
1.082230307e-09
1.081115742e-09
1.080256763e-09
1.079557686e-09
1.078957821e-09
1.078426484e-09
1.077953534e-09
1.077537762e-09
1.077178187e-09
1.07687063e-09
1.076608206e-09
1.076383154e-09
1.076188326e-09
1.07601784e-09
1.075867128e-09
1.075732703e-09
1.075611886e-09
1.075502595e-09
1.075403174e-09
1.075312276e-09
1.075228793e-09
1.075151795e-09
1.075080486e-09
1.075014205e-09
1.07495239e-09
1.074894565e-09
1.07484031e-09
1.074789221e-09
1.074740864e-09
1.074694698e-09
1.074649687e-09
1.074604161e-09
1.074555106e-09
1.074497051e-09
1.074421299e-09
1.074317211e-09
1.074175071e-09
1.073995057e-09
1.07379821e-09
1.073650141e-09
1.073830801e-09
0.0001767747505
3.092327828e-05
5.252573732e-06
4.338427156e-06
9.036413922e-06
1.285946069e-06
1.371838374e-07
1.879704711e-08
8.013798567e-09
2.666598716e-09
1.454129185e-09
1.188947934e-09
1.126132875e-09
1.105556242e-09
1.096678665e-09
1.092207741e-09
1.088811567e-09
1.085800754e-09
1.083703882e-09
1.082234883e-09
1.081170929e-09
1.080356838e-09
1.079690403e-09
1.079110589e-09
1.078587971e-09
1.078113731e-09
1.077688409e-09
1.077313633e-09
1.076988358e-09
1.076708307e-09
1.076467266e-09
1.076258662e-09
1.076076589e-09
1.075916192e-09
1.075773645e-09
1.075645966e-09
1.075530829e-09
1.075426386e-09
1.075331145e-09
1.075243882e-09
1.075163574e-09
1.075089357e-09
1.075020513e-09
1.074956432e-09
1.074896591e-09
1.074840523e-09
1.074787762e-09
1.074737795e-09
1.074689945e-09
1.074642964e-09
1.074594902e-09
1.074542411e-09
1.074479771e-09
1.074398475e-09
1.07428888e-09
1.07414331e-09
1.073964471e-09
1.073774357e-09
1.073637971e-09
1.07385303e-09
0.0001760942349
3.206677736e-05
8.192384385e-06
2.760850047e-05
5.803632862e-06
6.906781242e-07
8.539525602e-08
1.277484086e-08
9.197906523e-09
4.233042423e-09
2.009548563e-09
1.319989583e-09
1.1593035e-09
1.116499895e-09
1.101123673e-09
1.094093256e-09
1.089456535e-09
1.08592616e-09
1.083651648e-09
1.082158094e-09
1.081128991e-09
1.080364996e-09
1.079746081e-09
1.079205721e-09
1.078712957e-09
1.078257804e-09
1.077839378e-09
1.077458931e-09
1.077120871e-09
1.076825546e-09
1.076569427e-09
1.076347148e-09
1.076153179e-09
1.075982638e-09
1.075831495e-09
1.075696525e-09
1.07557517e-09
1.075465387e-09
1.075365532e-09
1.075274257e-09
1.075190445e-09
1.075113162e-09
1.075041625e-09
1.074975163e-09
1.0749132e-09
1.074855206e-09
1.074800654e-09