/*--------------------------------*- C++ -*----------------------------------*\
  =========                 |
  \\      /  F ield         | OpenFOAM: The Open Source CFD Toolbox
   \\    /   O peration     | Website:  https://openfoam.org
    \\  /    A nd           | Version:  10
     \\/     M anipulation  |
\*---------------------------------------------------------------------------*/
FoamFile
{
    format      ascii;
    class       volScalarField;
    location    "0.02498436188";
    object      CH3CHO;
}
// * * * * * * * * * * * * * * * * * * * * * * * * * * * * * * * * * * * * * //

dimensions      [0 0 0 0 0 0 0];

internalField   nonuniform List<scalar> 
5170
(
0
0
0
0
0
0
0
0
0
0
0
0
0
0
0
0
0
0
0
0
0
0
0
0
0
0
0
0
0
0
0
0
0
0
0
0
0
0
0
0
0
0
0
0
0
0
0
0
0
0
0
0
0
0
0
0
0
0
0
0
0
0
0
0
0
0
0
0
0
0
0
0
0
0
0
0
0
0
0
0
0
0
0
0
0
0
0
0
0
0
0
0
0
2.855739711e-13
1.469954252e-12
4.921844927e-13
3.200078058e-12
2.636651946e-11
1.876422885e-10
9.127712246e-10
2.311909305e-24
4.429143663e-26
5.227924437e-26
5.217031741e-26
5.097364028e-26
2.126415545e-24
0
0
0
0
2.677429538e-25
7.177409163e-27
0
0
0
0
0
0
0
2.935836535e-24
4.922829951e-22
2.46074997e-23
0
1.762435022e-22
0
0
0
0
1.523628061e-20
0
9.864009784e-19
0
0
3.662797086e-18
3.033121531e-16
4.92200673e-16
3.832356155e-17
2.681010317e-17
0
4.531029861e-17
5.773676876e-17
0
0
0
0
0
0
0
0
0
0
0
0
0
0
0
0
0
0
0
0
0
0
0
0
0
0
0
0
0
0
0
0
0
0
0
0
0
0
0
0
0
0
0
0
0
0
0
0
0
6.724825842e-11
0
0
0
0
1.470180275e-08
7.481821834e-10
1.507185651e-10
9.883730735e-12
2.769291751e-13
2.222328542e-11
1.742944792e-10
2.690946402e-09
4.012725881e-08
5.392693041e-07
1.284317667e-10
8.762539741e-10
1.08426007e-08
1.160510205e-07
9.202836682e-07
4.474385315e-10
2.753913087e-09
2.811516661e-08
2.299264835e-07
1.244235762e-06
1.208266461e-09
6.754192379e-09
5.805688719e-08
3.73470667e-07
1.469498329e-06
2.792892346e-09
1.416532011e-08
1.033490793e-07
5.261886964e-07
1.575527789e-06
5.904791026e-09
2.736816157e-08
1.671384274e-07
6.698029363e-07
1.620852352e-06
1.165291691e-08
4.923779484e-08
2.484487033e-07
7.997521706e-07
1.661505322e-06
2.159589731e-08
8.246269903e-08
3.436751888e-07
9.180069823e-07
1.711304626e-06
3.810854672e-08
1.300637973e-07
4.484938264e-07
1.024454206e-06
1.757574491e-06
6.457731075e-08
1.940797469e-07
5.57295132e-07
1.116493572e-06
1.781943401e-06
1.059742503e-07
2.763699295e-07
6.657499737e-07
1.193935497e-06
1.790575425e-06
1.712704514e-07
3.762092873e-07
7.705204716e-07
1.262872834e-06
1.800866929e-06
2.709012709e-07
4.913056481e-07
8.746330143e-07
1.333468209e-06
1.830809672e-06
3.981572253e-07
6.177698921e-07
9.818762223e-07
1.412051248e-06
1.881522339e-06
5.586949449e-07
7.604632008e-07
1.098570944e-06
1.502700952e-06
1.949948012e-06
7.400103799e-07
9.185919577e-07
1.229562467e-06
1.609848166e-06
2.036628965e-06
9.464110395e-07
1.102869863e-06
1.387229263e-06
1.744729321e-06
2.152742791e-06
1.197072687e-06
1.334594936e-06
1.597940067e-06
1.943263402e-06
2.349079256e-06
1.535201335e-06
1.672565495e-06
1.952501337e-06
2.343731548e-06
2.827592382e-06
2.097466401e-06
2.269086222e-06
2.636534472e-06
3.185856188e-06
3.92402513e-06
3.018351413e-06
3.224638706e-06
3.66505418e-06
4.312983452e-06
5.156948087e-06
4.160489733e-06
4.324982983e-06
4.674575232e-06
5.175469584e-06
5.797198204e-06
4.832699326e-06
4.922317825e-06
5.110505376e-06
5.371907698e-06
5.67981904e-06
4.787972019e-06
4.820799962e-06
4.886432305e-06
4.970955535e-06
5.058962639e-06
4.249372017e-06
4.251962571e-06
4.253012372e-06
4.246700733e-06
4.227071086e-06
3.516413094e-06
3.507207823e-06
3.484449553e-06
3.446416847e-06
3.391590204e-06
2.845136277e-06
2.833829578e-06
2.807050947e-06
2.764800642e-06
2.707419929e-06
2.27340555e-06
2.263045666e-06
2.239031819e-06
2.201908741e-06
2.152526506e-06
1.803698707e-06
1.795200683e-06
1.775710246e-06
1.745845392e-06
1.706456426e-06
1.4189582e-06
1.412369802e-06
1.397327443e-06
1.37435918e-06
1.344168306e-06
1.101799732e-06
1.096884005e-06
1.085666465e-06
1.068547334e-06
1.046061207e-06
8.395060644e-07
8.359567781e-07
8.278352457e-07
8.154210963e-07
7.991050135e-07
6.23672984e-07
6.211933769e-07
6.154896532e-07
6.067447214e-07
5.952349234e-07
4.489828423e-07
4.473139005e-07
4.434450596e-07
4.37488573e-07
4.296347785e-07
3.117042278e-07
3.106282097e-07
3.081088965e-07
3.042099338e-07
2.990584751e-07
2.081654846e-07
2.075045901e-07
2.059374323e-07
2.034968826e-07
2.002650251e-07
1.338037438e-07
1.334178679e-07
1.324888341e-07
1.310314833e-07
1.290967027e-07
8.315071959e-08
8.293642736e-08
8.241104437e-08
8.158000869e-08
8.04736241e-08
5.046609929e-08
5.035201698e-08
5.006671675e-08
4.961140313e-08
4.90033454e-08
3.047029104e-08
3.041095773e-08
3.025975398e-08
3.001642007e-08
2.969040331e-08
1.883618628e-08
1.880478994e-08
1.872397745e-08
1.859328288e-08
1.841770219e-08
1.235383472e-08
1.233583857e-08
1.228993133e-08
1.221587741e-08
1.211626591e-08
8.845796728e-09
8.833959519e-09
8.804645241e-09
8.757906738e-09
8.695094709e-09
6.950811568e-09
6.941770393e-09
6.920310212e-09
6.88666069e-09
6.84155624e-09
5.882400108e-09
5.874804633e-09
5.857351819e-09
5.830370763e-09
5.794300962e-09
5.218656113e-09
5.211978795e-09
5.196933087e-09
5.173879554e-09
5.143116266e-09
4.748797466e-09
4.742843061e-09
4.729560648e-09
4.709303442e-09
4.682296451e-09
4.37572761e-09
4.370405264e-09
4.358587905e-09
4.340599281e-09
4.316623004e-09
4.055762664e-09
4.051000933e-09
4.040448607e-09
4.024400366e-09
4.003008969e-09
3.770900692e-09
3.766641555e-09
3.757210605e-09
3.742872329e-09
3.723758976e-09
3.513309473e-09
3.509493065e-09
3.501056475e-09
3.48823969e-09
3.471155553e-09
3.282006111e-09
3.278592331e-09
3.271040138e-09
3.259557969e-09
3.244244309e-09
3.072926883e-09
3.069856366e-09
3.063066866e-09
3.052747344e-09
3.038982933e-09
2.883619692e-09
2.880850386e-09
2.874729533e-09
2.865427366e-09
2.853017854e-09
2.711475589e-09
2.708970469e-09
2.703435785e-09
2.695025242e-09
2.683803397e-09
2.553927479e-09
2.55165674e-09
2.546641398e-09
2.539020432e-09
2.528850438e-09
2.408895311e-09
2.406833727e-09
2.402281348e-09
2.395363888e-09
2.386131098e-09
2.274952041e-09
2.273076147e-09
2.26893448e-09
2.262640947e-09
2.254239332e-09
2.151223522e-09
2.149509924e-09
2.145727418e-09
2.139979732e-09
2.132305573e-09
2.03701102e-09
2.035436283e-09
2.031961492e-09
2.026682117e-09
2.019632994e-09
1.931393272e-09
1.929938835e-09
1.926730935e-09
1.921857968e-09
1.915351189e-09
1.833035584e-09
1.831685913e-09
1.828710363e-09
1.824191415e-09
1.818157687e-09
1.740158299e-09
1.73890314e-09
1.736136459e-09
1.731934647e-09
1.726323611e-09
1.650860709e-09
1.64970021e-09
1.647142134e-09
1.64325752e-09
1.638071009e-09
1.564351837e-09
1.563286486e-09
1.560937196e-09
1.557368686e-09
1.552603564e-09
1.480707757e-09
1.479735695e-09
1.477590856e-09
1.474331576e-09
1.469978312e-09
1.401321132e-09
1.400435701e-09
1.398481566e-09
1.395511826e-09
1.391545502e-09
1.327890408e-09
1.327083726e-09
1.32530349e-09
1.322597793e-09
1.318983286e-09
1.262681107e-09
1.261938444e-09
1.260300907e-09
1.257813501e-09
1.254491491e-09
1.210250681e-09
1.209553738e-09
1.208018367e-09
1.205687352e-09
1.202574732e-09
1.872171281e-06
2.46633518e-06
2.719792199e-06
2.683771286e-06
2.500044917e-06
2.362313335e-06
2.307734866e-06
2.300155727e-06
2.291338184e-06
2.243235062e-06
2.189972073e-06
2.159556941e-06
2.171208992e-06
2.210903176e-06
2.268547281e-06
2.343195392e-06
2.448099336e-06
2.647595823e-06
3.193811061e-06
4.541508403e-06
5.83604726e-06
6.267711208e-06
5.899524878e-06
5.11474924e-06
4.207702972e-06
3.348459047e-06
2.663954292e-06
2.115484228e-06
1.677011465e-06
1.321660194e-06
1.029365338e-06
7.870695155e-07
5.868275645e-07
4.239751847e-07
2.954114071e-07
1.980269545e-07
1.277920636e-07
7.975016786e-08
4.861858007e-08
2.949000081e-08
1.831105923e-08
1.205439075e-08
8.653641583e-09
6.809518847e-09
5.767153482e-09
5.119132476e-09
4.660853538e-09
4.297426285e-09
3.985810796e-09
3.708361376e-09
3.457369959e-09
3.231872396e-09
3.027847856e-09
2.84296506e-09
2.674701229e-09
2.52059267e-09
2.37862777e-09
2.24740597e-09
2.126058497e-09
2.013889628e-09
1.910043933e-09
1.813231909e-09
1.721740315e-09
1.633836179e-09
1.548715478e-09
1.466429156e-09
1.388314199e-09
1.316036573e-09
1.251779168e-09
1.200028618e-09
4.31320923e-06
3.477317251e-07
1.103521942e-08
5.335603738e-10
8.338203773e-11
5.683996597e-06
1.521718258e-05
8.757038163e-07
2.646537006e-08
9.031610134e-09
5.503575257e-06
1.304543871e-05
1.24390085e-06
6.820954968e-08
6.665501112e-08
4.747342447e-06
7.238568456e-06
1.161138704e-06
9.925840848e-08
6.205034719e-08
3.968976951e-06
4.945728733e-06
5.447542734e-06
5.515065071e-07
4.562760064e-08
3.536968726e-06
4.809833877e-06
9.785502346e-06
1.196827522e-06
1.161839429e-07
3.341451744e-06
4.767998619e-06
1.081591869e-05
1.560972798e-06
1.803518271e-07
3.241007588e-06
4.604434576e-06
7.902060436e-06
1.430276205e-06
1.928872843e-07
3.13322238e-06
4.298860525e-06
6.329029242e-06
2.111303414e-06
3.160031785e-07
2.948716197e-06
3.763822198e-06
4.796092582e-06
3.863077389e-06
6.087686832e-07
2.793327095e-06
3.495262569e-06
4.423171446e-06
5.278901828e-06
9.379373281e-07
2.703572213e-06
3.41866159e-06
4.416122704e-06
6.458006084e-06
1.239431115e-06
2.693805758e-06
3.48239272e-06
4.583436834e-06
7.07978899e-06
1.598563148e-06
2.719531174e-06
3.521003793e-06
4.545042511e-06
6.653513999e-06
1.540403523e-06
2.7600651e-06
3.540534839e-06
4.500547647e-06
6.325428802e-06
2.716461398e-06
2.815041785e-06
3.563693855e-06
4.459674725e-06
5.957681153e-06
3.376882482e-06
2.900885303e-06
3.621726187e-06
4.474723016e-06
5.831427986e-06
4.240097155e-06
3.099756758e-06
3.843262765e-06
4.753967959e-06
6.366837124e-06
4.523671709e-06
3.729019378e-06
4.659743365e-06
5.890161434e-06
8.49100029e-06
4.213563831e-06
5.473455059e-06
7.436105378e-06
1.018050582e-05
1.488827591e-05
7.044448173e-06
6.864893945e-06
8.870908854e-06
1.135712289e-05
1.463958641e-05
1.948045898e-05
6.981072424e-06
8.136130805e-06
9.197496629e-06
9.951919961e-06
1.014708925e-05
6.245314353e-06
6.671309666e-06
6.878546854e-06
6.774363163e-06
6.308640036e-06
5.222056054e-06
5.259365203e-06
5.127580777e-06
4.814515216e-06
4.337821506e-06
4.204121323e-06
4.096715851e-06
3.879286987e-06
3.564268868e-06
3.175790764e-06
3.305559897e-06
3.166543423e-06
2.959179667e-06
2.699216031e-06
2.40567186e-06
2.615917509e-06
2.48947336e-06
2.318226539e-06
2.115506177e-06
1.894843995e-06
2.072795145e-06
1.969141724e-06
1.834667642e-06
1.679528669e-06
1.513231393e-06
1.642483543e-06
1.56140333e-06
1.458105532e-06
1.340138127e-06
1.214259781e-06
1.295262124e-06
1.233677521e-06
1.155501831e-06
1.066322788e-06
9.710380368e-07
1.010081867e-06
9.645094812e-07
9.062642838e-07
8.394959491e-07
7.678075568e-07
7.735989655e-07
7.407774156e-07
6.982002697e-07
6.489489675e-07
5.956928091e-07
5.778749154e-07
5.549611675e-07
5.245784726e-07
4.890064396e-07
4.502182e-07
4.183712246e-07
4.029624535e-07
3.819358854e-07
3.569589506e-07
3.294724029e-07
2.921540942e-07
2.822429331e-07
2.682266875e-07
2.512969846e-07
2.324812532e-07
1.963009784e-07
1.902363163e-07
1.8128267e-07
1.702633991e-07
1.578866193e-07
1.26980649e-07
1.23459088e-07
1.179903029e-07
1.111204094e-07
1.033176579e-07
7.942825685e-08
7.748447132e-08
7.428706631e-08
7.018185469e-08
6.546470431e-08
4.852277657e-08
4.749340598e-08
4.569327336e-08
4.333137627e-08
4.058601284e-08
2.947648865e-08
2.894130065e-08
2.795245433e-08
2.663028565e-08
2.507734989e-08
1.831307855e-08
1.802685212e-08
1.748326025e-08
1.674850222e-08
1.587869775e-08
1.204822111e-08
1.187954978e-08
1.156801329e-08
1.114850262e-08
1.065074858e-08
8.635608706e-09
8.519799114e-09
8.324482204e-09
8.067502634e-09
7.764182498e-09
6.783143793e-09
6.691637452e-09
6.553930627e-09
6.379131491e-09
6.175146583e-09
5.73694677e-09
5.65828051e-09
5.550330385e-09
5.417901772e-09
5.265362238e-09
5.088422501e-09
5.018399671e-09
4.927674439e-09
4.819020036e-09
4.695058408e-09
4.631603665e-09
4.568816716e-09
4.489898186e-09
4.396484529e-09
4.290313868e-09
4.270485834e-09
4.214069288e-09
4.144008765e-09
4.061645016e-09
3.968272305e-09
3.961374002e-09
3.910746998e-09
3.848232232e-09
3.774920712e-09
3.691897819e-09
3.68635482e-09
3.640985777e-09
3.585120048e-09
3.519681221e-09
3.445523624e-09
3.437589233e-09
3.396929086e-09
3.346909344e-09
3.28829775e-09
3.221842409e-09
3.214062506e-09
3.177531324e-09
3.132626992e-09
3.080010465e-09
3.020326561e-09
3.011762638e-09
2.978851005e-09
2.938439153e-09
2.891090679e-09
2.837358466e-09
2.828391649e-09
2.798650873e-09
2.762173003e-09
2.719439719e-09
2.670924033e-09
2.661463468e-09
2.634511532e-09
2.601490832e-09
2.562811702e-09
2.518880977e-09
2.508551305e-09
2.484080364e-09
2.454121814e-09
2.419029017e-09
2.379151635e-09
2.367664531e-09
2.345411311e-09
2.318178287e-09
2.286270874e-09
2.249991934e-09
2.237403969e-09
2.217121785e-09
2.192307366e-09
2.163225354e-09
2.130138617e-09
2.116896093e-09
2.09834081e-09
2.075650213e-09
2.049053459e-09
2.018782427e-09
2.005444377e-09
1.988377877e-09
1.967528314e-09
1.943101248e-09
1.915296731e-09
1.902216474e-09
1.886439802e-09
1.867193673e-09
1.844655392e-09
1.819000014e-09
1.805948212e-09
1.791299875e-09
1.773451966e-09
1.752558171e-09
1.728774913e-09
1.714954558e-09
1.701332938e-09
1.684753889e-09
1.665365636e-09
1.643309371e-09
1.627570621e-09
1.614979133e-09
1.599646102e-09
1.581703306e-09
1.561284003e-09
1.542977527e-09
1.531414951e-09
1.517310636e-09
1.500788007e-09
1.481971134e-09
1.461208089e-09
1.45065082e-09
1.437745421e-09
1.42260518e-09
1.405353336e-09
1.383569337e-09
1.373959734e-09
1.36219812e-09
1.348404478e-09
1.332683565e-09
1.311703637e-09
1.302939806e-09
1.292222538e-09
1.279651508e-09
1.265319964e-09
1.24777082e-09
1.239699773e-09
1.229855413e-09
1.218318207e-09
1.20516842e-09
1.196243435e-09
1.188663066e-09
1.179447683e-09
1.16866477e-09
1.156384347e-09
5.333286198e-12
0
0
0
0
0
0
0
0
0
0
0
0
0
0
0
0
0
0
0
0
0
0
0
0
0
0
0
0
0
0
0
0
0
0
0
0
0
0
0
0
0
0
0
0
0
0
0
0
0
0
0
0
0
0
0
0
0
0
0
5.046002748e-10
7.126994755e-12
0
0
0
0
0
0
0
0
0
0
0
0
0
0
0
0
0
0
0
0
0
0
0
0
0
0
0
0
0
0
0
0
0
0
0
0
0
0
0
0
0
0
0
0
0
0
0
0
0
0
0
0
0
0
0
0
0
0
5.114608555e-09
0
1.144781981e-10
1.163323485e-11
0
0
0
0
0
0
0
0
0
0
0
0
0
0
0
0
0
0
0
0
0
0
0
0
0
0
0
0
0
0
0
0
0
0
0
0
0
0
0
0
0
0
0
0
0
0
0
0
0
0
0
0
0
0
0
0
1.534284602e-08
3.500717195e-09
1.559569176e-09
2.167010286e-10
3.166411139e-11
2.613384667e-12
0
0
0
0
0
0
0
0
0
0
0
0
0
0
0
0
0
0
0
0
0
0
0
0
0
0
0
0
0
0
0
0
0
0
0
0
0
0
0
0
0
0
0
0
0
0
0
0
0
0
0
0
0
0
5.549410697e-08
1.384317846e-08
9.161662715e-09
2.185994281e-09
3.3263351e-10
7.018733618e-11
1.642375122e-11
1.765481344e-12
0
0
0
0
0
0
0
0
0
0
0
0
0
0
0
0
0
0
0
0
0
0
0
0
0
0
0
0
0
0
0
0
0
0
0
0
0
0
0
0
0
0
0
0
0
0
0
0
0
0
0
0
1.038653506e-07
3.472758193e-08
2.088957958e-08
1.202850553e-08
1.970892701e-09
3.516576969e-10
8.972686047e-11
2.440093907e-11
4.333112601e-12
0
0
0
0
0
0
0
0
0
0
0
0
0
0
0
0
0
0
0
0
0
0
0
0
0
0
0
0
0
0
0
0
0
0
0
0
0
0
0
0
0
0
0
0
0
0
0
0
0
0
0
5.377544629e-08
5.711383925e-08
3.446300529e-08
3.149700512e-08
1.037353412e-08
1.531289449e-09
3.140629758e-10
8.752607918e-11
2.418148672e-11
4.01789171e-12
0
0
0
0
0
0
0
0
0
0
0
0
0
0
0
0
0
0
0
0
0
0
0
0
0
0
0
0
0
0
0
0
0
0
0
0
0
0
0
0
0
0
0
0
0
0
0
0
0
0
2.214593325e-08
6.982774671e-08
5.283693189e-08
5.143749036e-08
3.49740645e-08
6.952381859e-09
1.069572362e-09
2.528396358e-10
7.296248299e-11
1.882922459e-11
2.212981236e-12
0
0
0
0
0
0
0
0
0
0
0
0
0
0
0
0
0
0
0
0
0
0
0
0
0
0
0
0
0
0
0
0
0
0
0
0
0
0
0
0
0
0
0
0
0
0
0
0
0
3.351471024e-08
4.827677305e-08
7.977907559e-08
7.282012238e-08
7.153151526e-08
2.804488155e-08
3.967851765e-09
7.051592981e-10
1.828433177e-10
5.132451915e-11
1.120307001e-11
2.804551164e-13
0
0
0
0
0
0
0
0
0
0
0
0
0
0
0
0
0
0
0
0
0
0
0
0
0
0
0
0
0
0
0
0
0
0
0
0
0
0
0
0
0
0
0
0
0
0
0
0
6.505292899e-08
2.502159276e-08
1.020205749e-07
9.985434936e-08
1.06267844e-07
7.397537565e-08
1.501175404e-08
1.959596012e-09
4.134692404e-10
1.103721907e-10
2.770489183e-11
4.046938419e-12
0
0
0
0
0
0
0
0
0
0
0
0
0
0
0
0
0
0
0
0
0
0
0
0
0
0
0
0
0
0
0
0
0
0
0
0
0
0
0
0
0
0
0
0
0
0
0
0
1.134131266e-07
1.220839114e-08
7.921810682e-08
1.478347887e-07
1.489178724e-07
1.326360289e-07
4.302310115e-08
5.550595982e-09
9.069763168e-10
2.117676109e-10
5.279119665e-11
1.00707952e-11
1.37820075e-13
0
0
0
0
0
0
0
0
0
0
0
0
0
0
0
0
0
0
0
0
0
0
0
0
0
0
0
0
0
0
0
0
0
0
0
0
0
0
0
0
0
0
0
0
0
0
0
1.868418939e-07
2.306040072e-08
5.036110125e-08
2.630639637e-07
2.316689064e-07
2.104901391e-07
1.013444017e-07
1.553566148e-08
2.140583534e-09
4.035658742e-10
9.04555652e-11
1.806268602e-11
1.398576385e-12
0
0
0
0
0
0
0
0
0
0
0
0
0
0
0
0
0
0
0
0
0
0
0
0
0
0
0
0
0
0
0
0
0
0
0
0
0
0
0
0
0
0
0
0
0
0
0
2.372242647e-07
3.14470008e-08
3.799497194e-08
3.132221165e-07
3.309925612e-07
3.169102151e-07
1.896616944e-07
4.056936641e-08
4.869818124e-09
7.526407811e-10
1.416190266e-10
2.646144152e-11
2.727104986e-12
0
0
0
0
0
0
0
0
0
0
0
0
0
0
0
0
0
0
0
0
0
0
0
0
0
0
0
0
0
0
0
0
0
0
0
0
0
0
0
0
0
0
0
0
0
0
0
2.559963404e-07
3.795392178e-08
3.589659875e-08
2.337479144e-07
4.773883932e-07
4.41072079e-07
3.026090849e-07
9.169022333e-08
1.08357699e-08
1.433504858e-09
2.210708114e-10
3.660247626e-11
4.046444963e-12
0
0
0
0
0
0
0
0
0
0
0
0
0
0
0
0
0
0
0
0
0
0
0
0
0
0
0
0
0
0
0
0
0
0
0
0
0
0
0
0
0
0
0
0
0
0
0
4.691047629e-07
7.039286144e-08
3.298049179e-08
1.958580169e-07
8.536366727e-07
6.318650461e-07
4.259846969e-07
1.690725574e-07
2.368237884e-08
2.869989041e-09
3.449149716e-10
4.694279395e-11
4.836776447e-12
0
0
0
0
0
0
0
0
0
0
0
0
0
0
0
0
0
0
0
0
0
0
0
0
0
0
0
0
0
0
0
0
0
0
0
0
0
0
0
0
0
0
0
0
0
0
0
6.46158147e-07
8.95419133e-08
4.195489775e-08
2.192039775e-07
1.390132481e-06
8.845660207e-07
5.511060924e-07
2.446125007e-07
4.596208429e-08
5.78972823e-09
5.592566567e-10
5.928893606e-11
5.194975002e-12
0
0
0
0
0
0
0
0
0
0
0
0
0
0
0
0
0
0
0
0
0
0
0
0
0
0
0
0
0
0
0
0
0
0
0
0
0
0
0
0
0
0
0
0
0
0
0
8.583179389e-07
1.567039463e-07
7.462526893e-08
3.486829497e-07
1.704608724e-06
1.140516175e-06
6.5033818e-07
2.858658768e-07
7.660002256e-08
1.097921444e-08
9.566693191e-10
8.249312848e-11
6.592507529e-12
0
0
0
0
0
0
0
0
0
0
0
0
0
0
0
0
0
0
0
0
0
0
0
0
0
0
0
0
0
0
0
0
0
0
0
0
0
0
0
0
0
0
0
0
0
0
0
9.791433521e-07
2.703493243e-07
6.417956818e-07
4.478435932e-06
2.624729365e-06
1.366604537e-06
6.801410162e-07
2.916780464e-07
9.640798522e-08
1.997057856e-08
2.10369485e-09
1.748693173e-10
1.530036526e-11
2.506208053e-14
0
0
0
0
0
0
0
0
0
0
0
0
0
0
0
0
0
0
0
0
0
0
0
0
0
0
0
0
0
0
0
0
0
0
0
0
0
0
0
0
0
0
0
0
0
0
9.399208463e-07
3.63148057e-07
7.583732334e-07
4.604912966e-06
2.657571187e-06
1.351035924e-06
6.38237728e-07
2.787835706e-07
1.086305654e-07
3.379906985e-08
6.676112766e-09
7.345809735e-10
6.428047634e-11
3.434264281e-12
0
0
0
0
0
0
0
0
0
0
0
0
0
0
0
0
0
0
0
0
0
0
0
0
0
0
0
0
0
0
0
0
0
0
0
0
0
0
0
0
0
0
0
0
0
0
3.916658453e-06
4.251361797e-06
1.074592816e-05
5.207949569e-06
2.483435945e-06
1.198364068e-06
5.773568128e-07
2.714509839e-07
1.216690613e-07
4.967427039e-08
1.613612524e-08
3.21877505e-09
3.507470924e-10
2.707677692e-11
5.061706961e-14
0
0
0
0
0
0
0
0
0
0
0
0
0
0
0
0
0
0
0
0
0
0
0
0
0
0
0
0
0
0
0
0
0
0
0
0
0
0
0
0
0
0
0
0
0
2.175419836e-05
1.256684663e-05
7.045280831e-06
3.701724281e-06
1.921900295e-06
1.00427929e-06
5.245954337e-07
2.708165981e-07
1.360873603e-07
6.473610183e-08
2.752273428e-08
9.112109202e-09
1.796209337e-09
1.840742137e-10
1.098811714e-11
0
0
0
0
0
0
0
0
0
0
0
0
0
0
0
0
0
0
0
0
0
0
0
0
0
0
0
0
0
0
0
0
0
0
0
0
0
0
0
0
0
0
0
0
0
9.268443187e-06
6.662411524e-06
4.257159595e-06
2.546517112e-06
1.482888045e-06
8.542856763e-07
4.882363103e-07
2.756327517e-07
1.519789655e-07
8.022948412e-08
3.925574791e-08
1.677730783e-08
5.482597143e-09
1.031024773e-09
9.420321321e-11
2.986283853e-12
0
0
0
0
0
0
0
0
0
0
0
0
0
0
0
0
0
0
0
0
0
0
0
0
0
0
0
0
0
0
0
0
0
0
0
0
0
0
0
0
0
0
0
0
5.407318255e-06
4.095240438e-06
2.848807787e-06
1.878107968e-06
1.201186353e-06
7.540276829e-07
4.663305478e-07
2.834249968e-07
1.678910883e-07
9.556393622e-08
5.11633052e-08
2.491130496e-08
1.036587698e-08
3.239537276e-09
5.534058968e-10
4.07507995e-11
7.931706709e-15
0
0
0
0
0
0
0
0
0
0
0
0
0
0
0
0
0
0
0
0
0
0
0
0
0
0
0
0
0
0
0
0
0
0
0
0
0
0
0
0
0
0
0
3.674010002e-06
2.863033751e-06
2.105477252e-06
1.485169063e-06
1.018272057e-06
6.830825354e-07
4.492192551e-07
2.889835499e-07
1.807273292e-07
1.087667641e-07
6.20645761e-08
3.283553681e-08
1.552901852e-08
6.108656621e-09
1.764046822e-09
2.573221368e-10
1.226370785e-11
0
0
0
0
0
0
0
0
0
0
0
0
0
0
0
0
0
0
0
0
0
0
0
0
0
0
0
0
0
0
0
0
0
0
0
0
0
0
0
0
0
0
0
2.693606531e-06
2.141785286e-06
1.633314531e-06
1.215888296e-06
8.781144137e-07
6.195010674e-07
4.272044055e-07
2.872081316e-07
1.873605118e-07
1.177111364e-07
7.045020752e-08
3.954692312e-08
2.031814039e-08
9.166666094e-09
3.318595606e-09
8.785851681e-10
1.124112704e-10
2.595166722e-12
0
0
0
0
0
0
0
0
0
0
0
0
0
0
0
0
0
0
0
0
0
0
0
0
0
0
0
0
0
0
0
0
0
0
0
0
0
0
0
0
0
0
2.061463713e-06
1.684803864e-06
1.336409654e-06
1.030869766e-06
7.742062593e-07
5.663717147e-07
4.035975003e-07
2.802448902e-07
1.887197463e-07
1.225271641e-07
7.605278241e-08
4.458979027e-08
2.427192161e-08
1.191448793e-08
4.953452563e-09
1.579591329e-09
3.616110541e-10
3.426582094e-11
0
0
0
0
0
0
0
0
0
0
0
0
0
0
0
0
0
0
0
0
0
0
0
0
0
0
0
0
0
0
0
0
0
0
0
0
0
0
0
0
0
0
1.641545371e-06
1.366777575e-06
1.108232533e-06
8.764412913e-07
6.766283903e-07
5.096178929e-07
3.73659175e-07
2.661883062e-07
1.83670672e-07
1.223404183e-07
7.810718734e-08
4.733665072e-08
2.685939267e-08
1.397880955e-08
6.411388587e-09
2.335069757e-09
5.495042692e-10
9.014461044e-11
2.867632202e-12
0
0
0
0
0
0
0
0
0
0
0
0
0
0
0
0
0
0
0
0
0
0
0
0
0
0
0
0
0
0
0
0
0
0
0
0
0
0
0
0
0
1.323633444e-06
1.117669652e-06
9.214318591e-07
7.422508554e-07
5.842892648e-07
4.491729578e-07
3.366355876e-07
2.451666281e-07
1.729094957e-07
1.175224302e-07
7.667953021e-08
4.765126227e-08
2.789863017e-08
1.51552946e-08
7.437804445e-09
3.115040283e-09
9.080383943e-10
7.366146131e-11
4.184002925e-12
0
0
0
0
0
0
0
0
0
0
0
0
0
0
0
0
0
0
0
0
0
0
0
0
0
0
0
0
0
0
0
0
0
0
0
0
0
0
0
0
0
1.070739048e-06
9.13974106e-07
7.629644285e-07
6.230201243e-07
4.975172695e-07
3.881807467e-07
2.954330273e-07
2.187488674e-07
1.569532384e-07
1.086537413e-07
7.217306775e-08
4.570364339e-08
2.739438976e-08
1.535392069e-08
7.908161509e-09
3.60054062e-09
1.281012372e-09
2.479330491e-10
4.328461285e-11
1.495103095e-12
0
0
0
0
0
0
0
0
0
0
0
0
0
0
0
0
0
0
0
0
0
0
0
0
0
0
0
0
0
0
0
0
0
0
0
0
0
0
0
0
8.61997148e-07
7.420000434e-07
6.25206867e-07
5.156352552e-07
4.160442211e-07
3.280619922e-07
2.523907594e-07
1.890047177e-07
1.373142229e-07
9.633923495e-08
6.496101388e-08
4.183558181e-08
2.552242861e-08
1.465887488e-08
7.81716045e-09
3.779498551e-09
1.548780804e-09
3.924178685e-10
0
0
0
0
0
0
0
0
0
0
0
0
0
0
0
0
0
0
0
0
0
0
0
0
0
0
0
0
0
0
0
0
0
0
0
0
0
0
0
0
0
0
6.853043577e-07
5.937155613e-07
5.036995284e-07
4.183712544e-07
3.399887134e-07
2.700157631e-07
2.092311015e-07
1.578419387e-07
1.155981477e-07
8.188210459e-08
5.582178785e-08
3.643324882e-08
2.262272568e-08
1.32448706e-08
7.269127458e-09
3.691914231e-09
1.669590442e-09
5.947526134e-10
5.204401757e-11
0
0
0
0
0
0
0
0
0
0
0
0
0
0
0
0
0
0
0
0
0
0
0
0
0
0
0
0
0
0
0
0
0
0
0
0
0
0
0
0
0
5.339911759e-07
4.648563686e-07
3.962926245e-07
3.307367012e-07
2.70025358e-07
2.154228808e-07
1.676728833e-07
1.270684614e-07
9.352334832e-08
6.664505704e-08
4.580797582e-08
3.022464235e-08
1.904732555e-08
1.139531796e-08
6.422405047e-09
3.390552131e-09
1.634763416e-09
6.537875132e-10
1.041636621e-10
0
0
0
0
0
0
0
0
0
0
0
0
0
0
0
0
0
0
0
0
0
0
0
0
0
0
0
0
0
0
0
0
0
0
0
0
0
0
0
0
0
4.049610978e-07
3.537739824e-07
3.025974939e-07
2.533218278e-07
2.074132564e-07
1.659176684e-07
1.294842531e-07
9.840696069e-08
7.267298861e-08
5.201482549e-08
3.597802336e-08
2.396554288e-08
1.531566617e-08
9.354690571e-09
5.432446481e-09
2.980200945e-09
1.538419675e-09
7.096825946e-10
2.455751812e-10
0
0
0
0
0
0
0
0
0
0
0
0
0
0
0
0
0
0
0
0
0
0
0
0
0
0
0
0
0
0
0
0
0
0
0
0
0
0
0
0
0
2.971724854e-07
2.602994683e-07
2.231671198e-07
1.872117431e-07
1.535674517e-07
1.230598387e-07
9.621533741e-08
7.32859424e-08
5.428508179e-08
3.902616561e-08
2.717260149e-08
1.828408038e-08
1.186580778e-08
7.412162535e-09
4.450767585e-09
2.560655553e-09
1.407488799e-09
7.149586731e-10
2.90163612e-10
1.369210187e-12
0
0
0
0
0
0
0
0
0
0
0
0
0
0
0
0
0
0
0
0
0
0
0
0
0
0
0
0
0
0
0
0
0
0
0
0
0
0
0
0
2.102106946e-07
1.845501298e-07
1.585359304e-07
1.332248374e-07
1.094591422e-07
8.786105484e-08
6.883302583e-08
5.257010493e-08
3.909239693e-08
2.82683945e-08
1.985489653e-08
1.35350494e-08
8.953846878e-09
5.750575578e-09
3.590103465e-09
2.176706889e-09
1.275468177e-09
7.173336632e-10
3.599335977e-10
1.320904573e-10
0
0
0
0
0
0
0
0
0
0
0
0
0
0
0
0
0
0
0
0
0
0
0
0
0
0
0
0
0
0
0
0
0
0
0
0
0
0
0
0
1.431281646e-07
1.259619272e-07
1.084448752e-07
9.132413461e-08
7.519929871e-08
6.051627833e-08
4.756479289e-08
3.648849746e-08
2.730571662e-08
1.99243569e-08
1.417637017e-08
9.842749053e-09
6.67860806e-09
4.44006702e-09
2.900696127e-09
1.86429394e-09
1.175011582e-09
7.197276749e-10
4.081959602e-10
1.820473002e-10
0
0
0
0
0
0
0
0
0
0
0
0
0
0
0
0
0
0
0
0
0
0
0
0
0
0
0
0
0
0
0
0
0
0
0
0
0
0
0
0
9.394107737e-08
8.292824908e-08
7.161553047e-08
6.050591611e-08
5.000808289e-08
4.042644613e-08
3.195962306e-08
2.470706797e-08
1.868389043e-08
1.3828529e-08
1.003040617e-08
7.145194942e-09
5.013223805e-09
3.477947389e-09
2.391916034e-09
1.632501296e-09
1.100652929e-09
7.26030794e-10
4.537435136e-10
2.496477308e-10
1.001586666e-10
0
0
0
0
0
0
0
0
0
0
0
0
0
0
0
0
0
0
0
0
0
0
0
0
0
0
0
0
0
0
0
0
0
0
0
0
0
0
0
5.975086939e-08
5.297294432e-08
4.596163185e-08
3.904005626e-08
3.247296064e-08
2.645845875e-08
2.112635835e-08
1.654241263e-08
1.27189342e-08
9.617135995e-09
7.168483355e-09
5.2829844e-09
3.862181262e-09
2.81115076e-09
2.039354122e-09
1.474332017e-09
1.054522629e-09
7.400800001e-10
4.96389219e-10
3.064616903e-10
1.56531892e-10
3.761580001e-11
0
0
0
0
0
0
0
0
0
0
0
0
0
0
0
0
0
0
0
0
0
0
0
0
0
0
0
0
0
0
0
0
0
0
0
0
0
0
3.723363179e-08
3.32171783e-08
2.903015261e-08
2.48714265e-08
2.090425781e-08
1.725127994e-08
1.399401002e-08
1.117454582e-08
8.800722061e-09
6.852152735e-09
5.289161827e-09
4.059106909e-09
3.105004057e-09
2.371400759e-09
1.807225876e-09
1.371166109e-09
1.026835034e-09
7.519278928e-10
5.310941353e-10
3.496533017e-10
2.008044356e-10
8.554483413e-11
0
0
0
0
0
0
0
0
0
0
0
0
0
0
0
0
0
0
0
0
0
0
0
0
0
0
0
0
0
0
0
0
0
0
0
0
0
0
2.316627818e-08
2.085339605e-08
1.84222914e-08
1.598917213e-08
1.365018218e-08
1.147800586e-08
9.52180267e-09
7.807734728e-09
6.342088023e-09
5.115058262e-09
4.105947914e-09
3.286273651e-09
2.625315499e-09
2.09298225e-09
1.662367508e-09
1.310114817e-09
1.017881722e-09
7.714707555e-10
5.66320433e-10
3.921595911e-10
2.461080407e-10
1.312135712e-10
4.876650329e-11
0
0
0
0
0
0
0
0
0
0
0
0
0
0
0
0
0
0
0
0
0
0
0
0
0
0
0
0
0
0
0
0
0
0
0
0
0
1.480056409e-08
1.348393051e-08
1.208749076e-08
1.067632345e-08
9.304513205e-09
8.013775731e-09
6.832966183e-09
5.778179557e-09
4.85476e-09
4.059134156e-09
3.382033861e-09
2.809450987e-09
2.326322423e-09
1.917745911e-09
1.570561757e-09
1.272758496e-09
1.015439756e-09
7.908147252e-10
5.985923514e-10
4.291535371e-10
2.851968991e-10
1.64034205e-10
7.098053377e-11
0
0
0
0
0
0
0
0
0
0
0
0
0
0
0
0
0
0
0
0
0
0
0
0
0
0
0
0
0
0
0
0
0
0
0
0
0
1.003066709e-08
9.268210458e-09
8.451814366e-09
7.616677693e-09
6.792280056e-09
6.002115534e-09
5.262930549e-09
4.585042436e-09
3.972860847e-09
3.426154332e-09
2.942103135e-09
2.514796708e-09
2.137926144e-09
1.805037923e-09
1.510504717e-09
1.248526123e-09
1.015599636e-09
8.070143048e-10
6.250088209e-10
4.622391179e-10
3.214488701e-10
2.008315577e-10
1.027801161e-10
9.025653803e-12
0
0
0
0
0
0
0
0
0
0
0
0
0
0
0
0
0
0
0
0
0
0
0
0
0
0
0
0
0
0
0
0
0
0
0
0
7.385684773e-09
6.918748122e-09
6.414331851e-09
5.89083187e-09
5.364313911e-09
4.848027042e-09
4.351942561e-09
3.883291795e-09
3.445525016e-09
3.039970597e-09
2.667157371e-09
2.325361187e-09
2.012886006e-09
1.727674906e-09
1.46803191e-09
1.231549625e-09
1.017367039e-09
8.231582917e-10
6.472346188e-10
4.942471911e-10
3.541820088e-10
2.337093203e-10
1.311775818e-10
5.198550398e-11
0
0
0
0
0
0
0
0
0
0
0
0
0
0
0
0
0
0
0
0
0
0
0
0
0
0
0
0
0
0
0
0
0
0
0
0
5.921037913e-09
5.607911645e-09
5.267010482e-09
4.908272935e-09
4.540761898e-09
4.172161154e-09
3.808626179e-09
3.455095064e-09
3.114880041e-09
2.790110638e-09
2.482787892e-09
2.193147558e-09
1.921665897e-09
1.668438966e-09
1.43346793e-09
1.21625802e-09
1.016362062e-09
8.33069243e-10
6.652165815e-10
5.166771384e-10
3.796823453e-10
2.590689624e-10
1.530650058e-10
6.752407357e-11
0
0
0
0
0
0
0
0
0
0
0
0
0
0
0
0
0
0
0
0
0
0
0
0
0
0
0
0
0
0
0
0
0
0
0
0
5.076058967e-09
4.843319519e-09
4.58866464e-09
4.31774496e-09
4.036013428e-09
3.748197935e-09
3.458498475e-09
3.170651936e-09
2.887584763e-09
2.611769085e-09
2.345701191e-09
2.090405168e-09
1.847309478e-09
1.617414676e-09
1.401479654e-09
1.199814245e-09
1.012488303e-09
8.39291221e-10
6.79319803e-10
5.371124761e-10
4.051799428e-10
2.881344846e-10
1.864559732e-10
1.003977952e-10
3.554092886e-11
0
0
0
0
0
0
0
0
0
0
0
0
0
0
0
0
0
0
0
0
0
0
0
0
0
0
0
0
0
0
0
0
0
0
0
4.541527887e-09
4.353270674e-09
4.146656419e-09
3.92533263e-09
3.692740807e-09
3.452164827e-09
3.206796318e-09
2.959644509e-09
2.713267091e-09
2.470170522e-09
2.232778287e-09
2.002507435e-09
1.781094546e-09
1.569845857e-09
1.36976708e-09
1.182006725e-09
1.006533373e-09
8.434250932e-10
6.921366472e-10
5.559822874e-10
4.300430463e-10
3.130303821e-10
2.100564885e-10
1.200468034e-10
5.021111135e-11
0
0
0
0
0
0
0
0
0
0
0
0
0
0
0
0
0
0
0
0
0
0
0
0
0
0
0
0
0
0
0
0
0
0
0
4.159033368e-09
3.998282686e-09
3.821622932e-09
3.631472174e-09
3.430305922e-09
3.220684314e-09
3.005239222e-09
2.786385076e-09
2.566423377e-09
2.347852084e-09
2.132705479e-09
1.922550221e-09
1.719202065e-09
1.524028597e-09
1.338160892e-09
1.162927077e-09
9.98444114e-10
8.450585305e-10
7.026935907e-10
5.708173533e-10
4.497497981e-10
3.366326872e-10
2.364894798e-10
1.494443521e-10
8.403674994e-11
2.797787744e-11
0
0
0
0
0
0
0
0
0
0
0
0
0
0
0
0
0
0