/*--------------------------------*- C++ -*----------------------------------*\
  =========                 |
  \\      /  F ield         | OpenFOAM: The Open Source CFD Toolbox
   \\    /   O peration     | Website:  https://openfoam.org
    \\  /    A nd           | Version:  10
     \\/     M anipulation  |
\*---------------------------------------------------------------------------*/
FoamFile
{
    format      ascii;
    class       volScalarField;
    location    "0.02498436188";
    object      CH3OH;
}
// * * * * * * * * * * * * * * * * * * * * * * * * * * * * * * * * * * * * * //

dimensions      [0 0 0 0 0 0 0];

internalField   nonuniform List<scalar> 
5170
(
1.289391566e-11
1.28717233e-11
1.272464523e-11
1.168577488e-11
8.915570972e-13
2.568133305e-11
2.561204365e-11
2.529921221e-11
2.370387265e-11
1.46794918e-11
3.839958026e-11
3.828454578e-11
3.782804352e-11
3.592288975e-11
2.842980487e-11
5.097605213e-11
5.082084277e-11
5.02579867e-11
4.823219984e-11
4.226549427e-11
6.339316957e-11
6.320498754e-11
6.257672861e-11
6.058181844e-11
5.612685724e-11
7.564688355e-11
7.543843215e-11
7.478718535e-11
7.295898291e-11
7.000094247e-11
8.774983365e-11
8.75316327e-11
8.689794928e-11
8.536963125e-11
8.3890782e-11
9.972811587e-11
9.951462597e-11
9.893576488e-11
9.781765227e-11
9.780735673e-11
1.116049825e-10
1.114086805e-10
1.109258979e-10
1.1032086e-10
1.117652019e-10
1.23405276e-10
1.232347332e-10
1.228763981e-10
1.22899427e-10
1.257815454e-10
1.351443336e-10
1.350081997e-10
1.347972143e-10
1.355645073e-10
1.398619165e-10
1.468253395e-10
1.467352097e-10
1.467209042e-10
1.483149112e-10
1.539945647e-10
1.584515823e-10
1.584197016e-10
1.586615206e-10
1.611509561e-10
1.681647328e-10
1.700255221e-10
1.700644133e-10
1.706154854e-10
1.740699033e-10
1.823558804e-10
1.815467791e-10
1.816712662e-10
1.825806243e-10
1.870611994e-10
1.965468687e-10
1.930111143e-10
1.932379108e-10
1.945718922e-10
2.00122751e-10
2.106991369e-10
2.044173524e-10
2.047653814e-10
2.065745703e-10
2.13225538e-10
2.248211104e-10
2.157664766e-10
2.16258191e-10
2.186247237e-10
2.263955212e-10
2.389102794e-10
2.270935196e-10
2.278551664e-10
2.316290092e-10
2.461163382e-10
2.789713748e-10
2.482632322e-10
2.946644719e-10
6.860070811e-10
3.379736491e-09
1.518557454e-08
2.290837947e-19
9.251326771e-20
6.065473781e-20
5.52132549e-20
5.76459131e-20
1.625003042e-19
3.085237556e-20
6.104495809e-21
0
1.014237783e-20
3.090702763e-20
4.138399689e-20
1.026236912e-21
0
5.191909356e-21
5.304214776e-22
3.675136358e-20
0
0
1.128849071e-18
0
0
0
1.47269465e-17
0
0
5.528637116e-17
0
9.634324628e-17
0
0
0
0
2.815479812e-13
6.453393913e-12
0
9.829078202e-15
3.584676865e-13
6.07886168e-12
1.524631075e-10
2.60553659e-10
1.006337578e-11
4.03627628e-12
1.676764353e-11
0
0
2.181921934e-11
1.233595889e-11
0
0
0
0
0
0
1.588046837e-12
0
0
0
0
6.292569548e-12
6.134063359e-14
0
0
0
8.738421904e-11
5.717481846e-12
0
0
2.964579474e-11
2.001708279e-10
8.982526155e-11
7.069251041e-12
8.772822664e-12
9.301001863e-11
1.35761331e-10
9.999814998e-11
7.844358802e-11
7.742199009e-11
1.163779395e-10
1.500253959e-10
7.308894541e-11
1.675213772e-10
1.656176011e-10
1.107655282e-10
2.28233969e-10
1.120881416e-10
1.300326899e-10
1.317840725e-10
1.324313687e-10
1.131391865e-10
1.157344546e-09
2.760144034e-10
1.252192519e-10
2.072585354e-10
9.008561414e-11
1.133032017e-07
1.183714367e-08
2.252429482e-09
3.982953082e-10
1.812548732e-11
6.358472416e-10
3.27099618e-09
4.695055275e-08
6.973990418e-07
8.802272403e-06
2.365637796e-09
1.4485433e-08
1.7395453e-07
1.818187694e-06
1.255390291e-05
7.191166882e-09
4.203667352e-08
4.150524315e-07
3.21912913e-06
1.504538024e-05
1.801014697e-08
9.681944551e-08
8.012626063e-07
4.858216225e-06
1.707856485e-05
3.990191058e-08
1.970045221e-07
1.404818295e-06
6.653758068e-06
1.873622661e-05
8.172502924e-08
3.701762891e-07
2.207358936e-06
8.505235357e-06
2.024185594e-05
1.580398604e-07
6.567751724e-07
3.26988781e-06
1.039639324e-05
2.186100447e-05
2.905145897e-07
1.100404561e-06
4.578716553e-06
1.23215977e-05
2.354331987e-05
5.139983645e-07
1.756780169e-06
6.106498548e-06
1.423333985e-05
2.509553356e-05
8.807841929e-07
2.672075047e-06
7.808017212e-06
1.610457404e-05
2.647166805e-05
1.472734295e-06
3.904510748e-06
9.649216014e-06
1.792051499e-05
2.769255686e-05
2.444862325e-06
5.482477038e-06
1.158050721e-05
1.969681803e-05
2.882591245e-05
3.990089346e-06
7.395863353e-06
1.360018548e-05
2.144191203e-05
2.988968525e-05
6.043215642e-06
9.57916218e-06
1.569116469e-05
2.314549798e-05
3.086984205e-05
8.727121682e-06
1.209391322e-05
1.789759304e-05
2.484083139e-05
3.182732265e-05
1.184232772e-05
1.489646413e-05
2.026399146e-05
2.661939401e-05
3.288983418e-05
1.54342002e-05
1.812400448e-05
2.294705652e-05
2.862911073e-05
3.419218161e-05
1.966516965e-05
2.194419178e-05
2.614344184e-05
3.116886581e-05
3.618545115e-05
2.458656816e-05
2.657244626e-05
3.03471632e-05
3.501276883e-05
3.98125006e-05
3.098722111e-05
3.288630247e-05
3.662674631e-05
4.148688107e-05
4.691584956e-05
4.013182433e-05
4.201810978e-05
4.583130187e-05
5.098101118e-05
5.703206924e-05
5.154531875e-05
5.299502344e-05
5.601292952e-05
6.020047626e-05
6.520805632e-05
5.897449968e-05
5.979151871e-05
6.149002076e-05
6.383788131e-05
6.657066151e-05
5.878971905e-05
5.907663665e-05
5.964328791e-05
6.035754143e-05
6.106319492e-05
5.259645351e-05
5.258433013e-05
5.25075486e-05
5.231087225e-05
5.193716164e-05
4.398742047e-05
4.386561575e-05
4.357040468e-05
4.308620223e-05
4.240147804e-05
3.633994574e-05
3.621124323e-05
3.590676514e-05
3.542825098e-05
3.47831042e-05
3.029346439e-05
3.018623365e-05
2.993721219e-05
2.95528796e-05
2.904366242e-05
2.596424777e-05
2.588327501e-05
2.569757997e-05
2.541363636e-05
2.504014563e-05
2.316549624e-05
2.310639635e-05
2.297247439e-05
2.276893273e-05
2.250180288e-05
2.163348709e-05
2.158958075e-05
2.149152999e-05
2.134331395e-05
2.114863138e-05
2.108687672e-05
2.105180686e-05
2.097485287e-05
2.085922254e-05
2.070695335e-05
2.123435399e-05
2.120313892e-05
2.11357493e-05
2.103504162e-05
2.090206448e-05
2.178319961e-05
2.175258147e-05
2.168711667e-05
2.158958878e-05
2.146057676e-05
2.246338846e-05
2.243176765e-05
2.236431044e-05
2.22638474e-05
2.213082973e-05
2.305977167e-05
2.302684227e-05
2.295642759e-05
2.28514045e-05
2.271227918e-05
2.343473305e-05
2.340099491e-05
2.332853612e-05
2.322021846e-05
2.307666961e-05
2.353000557e-05
2.349628593e-05
2.342352412e-05
2.331448941e-05
2.316992442e-05
2.335016016e-05
2.331728276e-05
2.324602502e-05
2.313900014e-05
2.29970263e-05
2.293848138e-05
2.290708695e-05
2.283878421e-05
2.273599132e-05
2.25995552e-05
2.23542756e-05
2.232477039e-05
2.226037895e-05
2.216330865e-05
2.203439446e-05
2.165647848e-05
2.162905754e-05
2.156906923e-05
2.14785126e-05
2.135818247e-05
2.089452979e-05
2.086923113e-05
2.081378308e-05
2.072998902e-05
2.06185869e-05
2.010531493e-05
2.008207532e-05
2.003107303e-05
1.995393248e-05
1.985132739e-05
1.931411861e-05
1.929282295e-05
1.924604198e-05
1.917523953e-05
1.908102415e-05
1.853716634e-05
1.851767549e-05
1.847482887e-05
1.84099473e-05
1.832357709e-05
1.778437362e-05
1.776654261e-05
1.772732519e-05
1.766791454e-05
1.758879902e-05
1.706165685e-05
1.704534443e-05
1.700945363e-05
1.695506369e-05
1.688261027e-05
1.637235438e-05
1.635742665e-05
1.632457399e-05
1.627477454e-05
1.620841606e-05
1.57180952e-05
1.570442879e-05
1.56743457e-05
1.562873392e-05
1.556793861e-05
1.509893386e-05
1.508640612e-05
1.505883575e-05
1.50170303e-05
1.496129617e-05
1.451693949e-05
1.450545677e-05
1.448017774e-05
1.444183752e-05
1.439070904e-05
1.396930323e-05
1.395876113e-05
1.393555268e-05
1.390034848e-05
1.38533912e-05
1.34537003e-05
1.344400872e-05
1.342267266e-05
1.339030489e-05
1.334712146e-05
1.296734834e-05
1.295842665e-05
1.293878551e-05
1.29089855e-05
1.286921929e-05
1.250757994e-05
1.249935626e-05
1.248125129e-05
1.245377864e-05
1.241711039e-05
1.207232772e-05
1.206473579e-05
1.204802129e-05
1.202265545e-05
1.198879226e-05
1.166029053e-05
1.165326584e-05
1.16378001e-05
1.161432703e-05
1.158298471e-05
1.127072278e-05
1.126420037e-05
1.124984149e-05
1.122804723e-05
1.119894197e-05
1.090276206e-05
1.08966778e-05
1.088328557e-05
1.086295896e-05
1.083581095e-05
1.055468688e-05
1.054898498e-05
1.053643724e-05
1.051739383e-05
1.049195823e-05
1.022334694e-05
1.021798471e-05
1.020618688e-05
1.018828319e-05
1.016436951e-05
9.9044708e-06
9.899424439e-06
9.888322525e-06
9.871475165e-06
9.848971643e-06
9.59336886e-06
9.588632876e-06
9.57821247e-06
9.562397991e-06
9.541273184e-06
9.286987177e-06
9.28256755e-06
9.27283969e-06
9.258072588e-06
9.238344157e-06
8.984488693e-06
8.980389992e-06
8.971363492e-06
8.957655924e-06
8.939339011e-06
8.689203282e-06
8.685421362e-06
8.677088178e-06
8.664428796e-06
8.647508575e-06
8.405901416e-06
8.402412418e-06
8.394722093e-06
8.383036185e-06
8.367413559e-06
8.143641873e-06
8.140409121e-06
8.133284384e-06
8.122457837e-06
8.107982439e-06
7.92554069e-06
7.922500587e-06
7.915802133e-06
7.905624446e-06
7.892015817e-06
2.126392506e-05
2.429130879e-05
2.630885817e-05
2.75446375e-05
2.822402203e-05
2.898345948e-05
3.009526387e-05
3.127411433e-05
3.218873739e-05
3.295856954e-05
3.35613817e-05
3.415751498e-05
3.475125722e-05
3.523103659e-05
3.573643226e-05
3.642974393e-05
3.73892344e-05
3.90849925e-05
4.270966514e-05
5.054173063e-05
6.13538289e-05
6.883044319e-05
6.848897956e-05
6.148303055e-05
5.160887848e-05
4.187091139e-05
3.429960726e-05
2.866480981e-05
2.47610384e-05
2.229906105e-05
2.099663575e-05
2.058347652e-05
2.079035719e-05
2.134995727e-05
2.201624096e-05
2.259301831e-05
2.295468522e-05
2.304821083e-05
2.28784903e-05
2.248643042e-05
2.19280811e-05
2.125934051e-05
2.052733019e-05
1.976742947e-05
1.900407341e-05
1.825307947e-05
1.7524243e-05
1.682349479e-05
1.615426785e-05
1.551831768e-05
1.491578625e-05
1.434894345e-05
1.38150133e-05
1.33118097e-05
1.283668629e-05
1.238709898e-05
1.19610654e-05
1.155731076e-05
1.11750882e-05
1.0813548e-05
1.047108629e-05
1.014473647e-05
9.830492172e-06
9.523929481e-06
9.2221563e-06
8.924321339e-06
8.633645835e-06
8.354616544e-06
8.096119776e-06
7.880853685e-06
3.314981704e-05
2.498083011e-06
7.454148658e-08
8.958275854e-09
2.789271316e-09
4.07647408e-05
4.561406585e-05
2.632141176e-06
8.185363468e-08
7.623872692e-08
4.116563731e-05
5.417840806e-05
5.089391747e-06
2.788868097e-07
2.852270772e-07
4.163696746e-05
5.008502706e-05
8.723116203e-06
6.924140763e-07
2.301130429e-07
4.121825815e-05
4.704277471e-05
2.124888297e-05
2.131618591e-06
2.175303233e-07
4.116149375e-05
4.768607732e-05
3.251017033e-05
4.061743041e-06
4.138252405e-07
4.161468646e-05
4.792169636e-05
4.034423079e-05
5.830813637e-06
6.773608978e-07
4.208609931e-05
4.86835504e-05
4.293000395e-05
7.555707661e-06
1.000684581e-06
4.201147654e-05
4.820056713e-05
4.300606483e-05
1.382102497e-05
2.011690615e-06
4.197316127e-05
4.792251194e-05
4.417245311e-05
1.903706987e-05
3.132070686e-06
4.162992792e-05
4.748042616e-05
4.457016181e-05
2.303431964e-05
4.15306503e-06
4.148440948e-05
4.677153741e-05
4.368946425e-05
2.642440271e-05
5.217958904e-06
4.14676011e-05
4.617068559e-05
4.385716067e-05
3.012856758e-05
8.400183008e-06
4.121595254e-05
4.570489178e-05
4.417886246e-05
3.260845255e-05
1.207951696e-05
4.115906564e-05
4.555435981e-05
4.453488546e-05
3.438602258e-05
1.502267113e-05
4.133136794e-05
4.559630025e-05
4.486562565e-05
3.570900685e-05
1.758724816e-05
4.183428688e-05
4.585628284e-05
4.527903887e-05
3.683656203e-05
1.977667136e-05
4.31062468e-05
4.676669466e-05
4.596905978e-05
3.729297077e-05
1.97782158e-05
4.659905585e-05
5.003329106e-05
4.817668988e-05
3.74838338e-05
1.691378636e-05
5.545268104e-05
6.177400569e-05
6.407477074e-05
5.587317249e-05
2.113174171e-05
6.745693406e-05
7.748051739e-05
8.755504775e-05
9.676361637e-05
0.0001040277563
7.411022181e-05
8.232090735e-05
8.960724214e-05
9.447263966e-05
9.489323033e-05
7.146442314e-05
7.500680031e-05
7.64309251e-05
7.473834324e-05
6.930247586e-05
6.236741634e-05
6.232538672e-05
6.04307715e-05
5.654379706e-05
5.090215561e-05
5.141451011e-05
4.995543382e-05
4.727146894e-05
4.353804846e-05
3.906710869e-05
4.133303204e-05
3.968639144e-05
3.729865928e-05
3.437081268e-05
3.113294286e-05
3.377140023e-05
3.239229236e-05
3.05467537e-05
2.839245002e-05
2.608471971e-05
2.823310017e-05
2.718652161e-05
2.583874005e-05
2.430127343e-05
2.267435461e-05
2.442879557e-05
2.366410598e-05
2.270348607e-05
2.16194608e-05
2.047510349e-05
2.204220255e-05
2.148331063e-05
2.079745958e-05
2.002830193e-05
1.921328261e-05
2.078633431e-05
2.035991336e-05
1.985211045e-05
1.928603265e-05
1.868164728e-05
2.039455633e-05
2.003993055e-05
1.963272384e-05
1.918228432e-05
1.869715159e-05
2.060491241e-05
2.02775112e-05
1.991358701e-05
1.951410802e-05
1.908078654e-05
2.115839877e-05
2.083053725e-05
2.047248541e-05
2.008099272e-05
1.965442447e-05
2.181638611e-05
2.147571627e-05
2.110432444e-05
2.069774614e-05
2.025347752e-05
2.238779117e-05
2.203365962e-05
2.164426195e-05
2.121580681e-05
2.074644147e-05
2.274939191e-05
2.238810604e-05
2.198552982e-05
2.153946254e-05
2.104941926e-05
2.284828745e-05
2.248870892e-05
2.20822218e-05
2.162841554e-05
2.112828623e-05
2.268819285e-05
2.233867058e-05
2.193811499e-05
2.148768706e-05
2.098963802e-05
2.230839377e-05
2.197522658e-05
2.158879972e-05
2.115143089e-05
2.066625499e-05
2.176345852e-05
2.145052523e-05
2.108391391e-05
2.066666136e-05
2.020239447e-05
2.110820044e-05
2.081727279e-05
2.04736969e-05
2.008085202e-05
1.964255345e-05
2.038908162e-05
2.012038988e-05
1.980110282e-05
1.943466697e-05
1.902485257e-05
1.964117017e-05
1.93940055e-05
1.909891131e-05
1.875922733e-05
1.837853625e-05
1.888880155e-05
1.866194331e-05
1.839012523e-05
1.807647889e-05
1.772432846e-05
1.81478044e-05
1.793980899e-05
1.768991635e-05
1.740100405e-05
1.707610196e-05
1.742804042e-05
1.723742131e-05
1.700792672e-05
1.674215945e-05
1.644285208e-05
1.673551383e-05
1.656081279e-05
1.635013671e-05
1.610582996e-05
1.583033924e-05
1.607373594e-05
1.591358206e-05
1.572020658e-05
1.5495703e-05
1.524225292e-05
1.544453232e-05
1.529764901e-05
1.512013215e-05
1.491384044e-05
1.468070406e-05
1.484809711e-05
1.471328581e-05
1.455025466e-05
1.436064199e-05
1.414615307e-05
1.428679169e-05
1.416296396e-05
1.401313897e-05
1.383876072e-05
1.364133278e-05
1.375786104e-05
1.364398676e-05
1.35061563e-05
1.334563704e-05
1.316375066e-05
1.325918312e-05
1.315432692e-05
1.302737327e-05
1.287943378e-05
1.27116693e-05
1.278816813e-05
1.269149293e-05
1.257440643e-05
1.243788433e-05
1.228294723e-05
1.234231664e-05
1.225307227e-05
1.214494475e-05
1.201879248e-05
1.18755136e-05
1.191967118e-05
1.183716453e-05
1.173716172e-05
1.162041862e-05
1.148772658e-05
1.151895702e-05
1.144250966e-05
1.134982534e-05
1.124156913e-05
1.111843825e-05
1.113941889e-05
1.10683493e-05
1.098218329e-05
1.088150481e-05
1.076692958e-05
1.078021135e-05
1.071384916e-05
1.06334172e-05
1.053943074e-05
1.04324325e-05
1.04397819e-05
1.037754306e-05
1.03021544e-05
1.021407002e-05
1.011377249e-05
1.01152503e-05
1.005669076e-05
9.985799767e-06
9.902983091e-06
9.808676511e-06
9.802724267e-06
9.747601514e-06
9.680885619e-06
9.602951658e-06
9.514200257e-06
9.497888754e-06
9.446146807e-06
9.383486784e-06
9.310260605e-06
9.226844492e-06
9.197902789e-06
9.149602487e-06
9.091025234e-06
9.022508338e-06
8.944407432e-06
8.901889123e-06
8.857068565e-06
8.802597574e-06
8.738799229e-06
8.666011117e-06
8.612996088e-06
8.571608514e-06
8.521204123e-06
8.462091094e-06
8.394579083e-06
8.335579598e-06
8.297355308e-06
8.25074452e-06
8.1960255e-06
8.133477336e-06
8.078455029e-06
8.043004886e-06
7.999776993e-06
7.949012967e-06
7.890955925e-06
7.864193636e-06
7.830818198e-06
7.79016016e-06
7.742428544e-06
7.687836616e-06
1.121787606e-08
8.259725542e-08
2.309344803e-08
1.118129823e-08
8.850478448e-09
8.192918906e-09
7.970119242e-09
7.89585825e-09
7.87388977e-09
7.867888266e-09
7.865100706e-09
7.861174531e-09
7.856299114e-09
7.851810696e-09
7.849502026e-09
7.85221664e-09
7.848848207e-09
7.839468875e-09
7.834941618e-09
7.832344798e-09
7.830255518e-09
7.82830584e-09
7.826435143e-09
7.824658939e-09
7.823000632e-09
7.821478907e-09
7.820079125e-09
7.818778521e-09
7.817579079e-09
7.816486637e-09
7.815475263e-09
7.814521818e-09
7.813624333e-09
7.812785327e-09
7.812022076e-09
7.811326775e-09
7.810691162e-09
7.810101926e-09
7.809560989e-09
7.809060893e-09
7.808597771e-09
7.808167234e-09
7.807755698e-09
7.807349857e-09
7.80697594e-09
7.806673865e-09
7.806421284e-09
7.806205447e-09
7.806008538e-09
7.805838871e-09
7.805686551e-09
7.805557793e-09
7.805435181e-09
7.805309259e-09
7.804772477e-09
7.800884632e-09
7.776498528e-09
7.663967102e-09
7.27286346e-09
6.758704946e-09
1.45595246e-07
3.804383823e-07
7.890084401e-08
3.065058957e-08
2.264978756e-08
2.059222013e-08
1.988756213e-08
1.960834535e-08
1.9494006e-08
1.944412191e-08
1.941839727e-08
1.939971593e-08
1.93827065e-08
1.936680615e-08
1.935526333e-08
1.935389269e-08
1.934343967e-08
1.93221197e-08
1.931110434e-08
1.930436395e-08
1.929882976e-08
1.929354012e-08
1.928843609e-08
1.928363158e-08
1.927932496e-08
1.927545683e-08
1.927184782e-08
1.926854494e-08
1.926572522e-08
1.926327441e-08
1.926100612e-08
1.925884496e-08
1.925688549e-08
1.925527611e-08
1.925399307e-08
1.925285482e-08
1.925184615e-08
1.925085138e-08
1.925006562e-08
1.924924182e-08
1.924871292e-08
1.924836802e-08
1.924790573e-08
1.924751414e-08
1.92470312e-08
1.924676308e-08
1.924650768e-08
1.924649476e-08
1.924650618e-08
1.924654889e-08
1.92465723e-08
1.92467164e-08
1.924673171e-08
1.924693394e-08
1.924613067e-08
1.924074429e-08
1.921475052e-08
1.912866381e-08
1.896702494e-08
1.887308402e-08
3.841565182e-07
4.975151464e-07
1.19480925e-07
4.753644097e-08
3.534928621e-08
3.22483322e-08
3.116629217e-08
3.070349477e-08
3.048441091e-08
3.037384328e-08
3.031307281e-08
3.027347418e-08
3.024178647e-08
3.021281323e-08
3.018784542e-08
3.017346885e-08
3.015486416e-08
3.012984489e-08
3.0116617e-08
3.010779235e-08
3.009942197e-08
3.00905744e-08
3.008167001e-08
3.00732572e-08
3.006563922e-08
3.005878517e-08
3.005267534e-08
3.004723657e-08
3.004239349e-08
3.003816246e-08
3.003446092e-08
3.003120965e-08
3.002853416e-08
3.002636297e-08
3.002452248e-08
3.002306201e-08
3.002198664e-08
3.002100499e-08
3.002016514e-08
3.001934795e-08
3.001892501e-08
3.001868847e-08
3.001856775e-08
3.00187261e-08
3.001889206e-08
3.001930169e-08
3.001965323e-08
3.002033718e-08
3.002093471e-08
3.002175866e-08
3.002252958e-08
3.002361935e-08
3.00243924e-08
3.002566536e-08
3.002604488e-08
3.002544902e-08
3.002245761e-08
3.003577961e-08
3.017013299e-08
3.039054853e-08
6.633434782e-07
6.161988104e-07
1.87138384e-07
6.065595798e-08
4.379663855e-08
4.021688932e-08
3.901378542e-08
3.847555117e-08
3.8200695e-08
3.80528161e-08
3.797063569e-08
3.792112014e-08
3.788617441e-08
3.785637696e-08
3.782952469e-08
3.781009339e-08
3.779487127e-08
3.778364129e-08
3.778077926e-08
3.777902128e-08
3.777499691e-08
3.776874552e-08
3.776148948e-08
3.775430328e-08
3.774777168e-08
3.774194336e-08
3.773683108e-08
3.773241378e-08
3.772859274e-08
3.772536673e-08
3.77226769e-08
3.772045453e-08
3.771877604e-08
3.771756942e-08
3.771671427e-08
3.771629332e-08
3.771624596e-08
3.771629507e-08
3.771643465e-08
3.771666463e-08
3.771715513e-08
3.771776931e-08
3.771856176e-08
3.771959851e-08
3.772072684e-08
3.772205518e-08
3.772336088e-08
3.772487138e-08
3.772627571e-08
3.772796759e-08
3.772962547e-08
3.773158319e-08
3.773323798e-08
3.773553151e-08
3.773776025e-08
3.774332786e-08
3.77615196e-08
3.783744337e-08
3.807617598e-08
3.835116746e-08
8.878066815e-07
9.800976779e-07
4.927175946e-07
1.14037654e-07
5.332449283e-08
4.533032633e-08
4.345745506e-08
4.275540175e-08
4.242037499e-08
4.224613712e-08
4.215419846e-08
4.210563003e-08
4.20788335e-08
4.206144019e-08
4.204801279e-08
4.203895498e-08
4.204144392e-08
4.205616268e-08
4.207304087e-08
4.20857171e-08
4.209230686e-08
4.209415882e-08
4.209345691e-08
4.209185839e-08
4.209021032e-08
4.208878283e-08
4.208766354e-08
4.20868685e-08
4.208637421e-08
4.20861858e-08
4.208626461e-08
4.208658571e-08
4.208718861e-08
4.20880451e-08
4.20890886e-08
4.209037082e-08
4.209184025e-08
4.209333772e-08
4.209484255e-08
4.20963988e-08
4.20980625e-08
4.209974514e-08
4.210151326e-08
4.210339409e-08
4.210532148e-08
4.210734676e-08
4.21093667e-08
4.211144615e-08
4.211344673e-08
4.211563373e-08
4.211780218e-08
4.212016148e-08
4.212234657e-08
4.212509445e-08
4.212851281e-08
4.213684989e-08
4.216124201e-08
4.223981812e-08
4.24316309e-08
4.262323471e-08
5.0271732e-07
1.456637819e-06
1.054812207e-06
3.676186194e-07
8.733791651e-08
5.182270521e-08
4.64120907e-08
4.497064096e-08
4.441278771e-08
4.415842859e-08
4.403766399e-08
4.39817973e-08
4.395754921e-08
4.394775517e-08
4.394440713e-08
4.394567575e-08
4.396562068e-08
4.400367688e-08
4.40396574e-08
4.406736605e-08
4.408551848e-08
4.409635343e-08
4.410287728e-08
4.410732499e-08
4.411085478e-08
4.411398604e-08
4.411693712e-08
4.411978592e-08
4.412256551e-08
4.412531956e-08
4.412803998e-08
4.41307357e-08
4.413343798e-08
4.413614986e-08
4.41388435e-08
4.414155259e-08
4.414425797e-08
4.414690538e-08
4.414948899e-08
4.415204138e-08
4.415458223e-08
4.415706236e-08
4.415952286e-08
4.416196636e-08
4.416436666e-08
4.416676385e-08
4.416913949e-08
4.417150374e-08
4.417379004e-08
4.417611274e-08
4.417838824e-08
4.418074697e-08
4.418303654e-08
4.418576273e-08
4.418943765e-08
4.419741188e-08
4.421785363e-08
4.427264004e-08
4.438419736e-08
4.448481409e-08
2.396919867e-07
1.512816382e-06
1.750238022e-06
1.044424937e-06
2.760496398e-07
7.479231382e-08
5.105393719e-08
4.679140561e-08
4.551906417e-08
4.50164338e-08
4.479801597e-08
4.470310357e-08
4.466458518e-08
4.465163497e-08
4.465051872e-08
4.465668127e-08
4.468698383e-08
4.473928036e-08
4.478831134e-08
4.482764463e-08
4.485557028e-08
4.487420129e-08
4.48868695e-08
4.489623772e-08
4.490384361e-08
4.491045185e-08
4.491641403e-08
4.492189863e-08
4.492700725e-08
4.49318077e-08
4.493633919e-08
4.494064149e-08
4.494474789e-08
4.494868245e-08
4.495245181e-08
4.495608045e-08
4.49595754e-08
4.496293162e-08
4.496615703e-08
4.496927227e-08
4.497228932e-08
4.497519452e-08
4.497801005e-08
4.498073796e-08
4.498337063e-08
4.498592803e-08
4.498841351e-08
4.499084284e-08
4.499319268e-08
4.499549762e-08
4.499773298e-08
4.499997808e-08
4.500220993e-08
4.500479378e-08
4.500832759e-08
4.501509232e-08
4.502992581e-08
4.506276424e-08
4.511915699e-08
4.516515388e-08
1.482812613e-07
8.498951463e-07
2.338706883e-06
1.938082048e-06
9.185068221e-07
1.844336586e-07
6.48672132e-08
4.995299484e-08
4.66785393e-08
4.559118664e-08
4.515432936e-08
4.49697738e-08
4.489406228e-08
4.486680182e-08
4.486186884e-08
4.486912662e-08
4.490452485e-08
4.496393793e-08
4.502031855e-08
4.506726031e-08
4.510243758e-08
4.512728869e-08
4.514491084e-08
4.51581318e-08
4.516878634e-08
4.517787189e-08
4.51858983e-08
4.519313524e-08
4.519974851e-08
4.5205848e-08
4.521151093e-08
4.52167993e-08
4.522176053e-08
4.522643458e-08
4.523084859e-08
4.523503094e-08
4.523900207e-08
4.524277645e-08
4.524637041e-08
4.524980126e-08
4.525308205e-08
4.525621664e-08
4.525921988e-08
4.526210037e-08
4.526486243e-08
4.52675157e-08
4.527006267e-08
4.527251719e-08
4.527487968e-08
4.527716511e-08
4.52793765e-08
4.528156666e-08
4.528378341e-08
4.528633322e-08
4.528981019e-08
4.529581911e-08
4.530710037e-08
4.532768928e-08
4.535750119e-08
4.53788123e-08
2.227881509e-07
4.444025449e-07
2.829606158e-06
2.96782899e-06
2.072021841e-06
6.754446491e-07
1.193274227e-07
5.819047662e-08
4.889013232e-08
4.639864925e-08
4.549595634e-08
4.512948593e-08
4.497842795e-08
4.492011681e-08
4.490361752e-08
4.490807932e-08
4.494507906e-08
4.500791454e-08
4.506839094e-08
4.512012639e-08
4.516049609e-08
4.519028467e-08
4.521208111e-08
4.522859743e-08
4.524180358e-08
4.525288332e-08
4.526250056e-08
4.527103789e-08
4.527873338e-08
4.528574537e-08
4.529218793e-08
4.529814582e-08
4.530368402e-08
4.530885613e-08
4.531370252e-08
4.531825935e-08
4.532255509e-08
4.532661375e-08
4.533045643e-08
4.533410228e-08
4.533756735e-08
4.534086339e-08
4.534400437e-08
4.534700122e-08
4.534986323e-08
4.535259994e-08
4.535521701e-08
4.535772388e-08
4.536012673e-08
4.536243741e-08
4.536467228e-08
4.536688261e-08
4.53691629e-08
4.537181232e-08
4.537544196e-08
4.538131083e-08
4.539114342e-08
4.540661969e-08
4.542603666e-08
4.54376688e-08
3.920260113e-07
2.740726358e-07
2.337015031e-06
3.87635436e-06
3.25280216e-06
1.702370457e-06
3.292600094e-07
8.132770174e-08
5.360905042e-08
4.786171536e-08
4.603940344e-08
4.534049086e-08
4.505547066e-08
4.494114175e-08
4.490182552e-08
4.489816806e-08
4.493355183e-08
4.49975375e-08
4.506036185e-08
4.511531959e-08
4.515954812e-08
4.519336242e-08
4.52188525e-08
4.523845303e-08
4.525410518e-08
4.526708978e-08
4.527819461e-08
4.528791132e-08
4.529656028e-08
4.530435842e-08
4.531146002e-08
4.5317977e-08
4.53239944e-08
4.532957906e-08
4.533478372e-08
4.533965213e-08
4.534422021e-08
4.534851801e-08
4.535257127e-08
4.535640227e-08
4.536003026e-08
4.536347138e-08
4.536674075e-08
4.536985122e-08
4.537281387e-08
4.53756391e-08
4.537833536e-08
4.538091227e-08
4.538337873e-08
4.538574747e-08
4.538804199e-08
4.539032296e-08
4.539272164e-08
4.539556536e-08
4.539949605e-08
4.540560406e-08
4.541515076e-08
4.542888431e-08
4.544454746e-08
4.545222047e-08
5.576650433e-07
8.532398386e-08
1.219079724e-06
5.020057729e-06
4.707345935e-06
3.125364062e-06
8.932119889e-07
1.461608726e-07
6.317328792e-08
5.026363634e-08
4.684059047e-08
4.563888827e-08
4.516423113e-08
4.497116255e-08
4.489811005e-08
4.488060255e-08
4.491104945e-08
4.49742106e-08
4.503807151e-08
4.509517708e-08
4.514233651e-08
4.517949355e-08
4.520831254e-08
4.523089966e-08
4.524904824e-08
4.526403362e-08
4.527671026e-08
4.528765883e-08
4.529728437e-08
4.530587183e-08
4.531362389e-08
4.532068622e-08
4.532716715e-08
4.533314927e-08
4.533869767e-08
4.534386487e-08
4.534869413e-08
4.53532214e-08
4.535747716e-08
4.536148746e-08
4.53652747e-08
4.536885811e-08
4.537225458e-08
4.537547894e-08
4.53785439e-08
4.538146129e-08
4.538424123e-08
4.538689437e-08
4.53894323e-08
4.539187172e-08
4.539424407e-08
4.539662508e-08
4.539917976e-08
4.540227485e-08
4.540657788e-08
4.541307999e-08
4.542278064e-08
4.543596244e-08
4.545006307e-08
4.545557882e-08
7.583585882e-07
1.496291739e-07
7.312760786e-07
5.916912581e-06
6.588558041e-06
4.862899827e-06
1.951721055e-06
3.188095063e-07
8.63404113e-08
5.486640084e-08
4.817733297e-08
4.612045464e-08
4.535120993e-08
4.50383694e-08
4.491235776e-08
4.487120355e-08
4.489151162e-08
4.495100847e-08
4.501422181e-08
4.507230106e-08
4.512148e-08
4.516129742e-08
4.519302204e-08
4.521843088e-08
4.523910064e-08
4.52562087e-08
4.527060092e-08
4.528290516e-08
4.529359735e-08
4.530303327e-08
4.531147271e-08
4.531910309e-08
4.532606139e-08
4.533244984e-08
4.533834751e-08
4.534381713e-08
4.534890982e-08
4.535366792e-08
4.535812695e-08
4.53623171e-08
4.536626407e-08
4.53699899e-08
4.537351362e-08
4.537685204e-08
4.538001963e-08
4.53830301e-08
4.538589497e-08
4.538862648e-08
4.539123887e-08
4.539375403e-08
4.539621381e-08
4.539871326e-08
4.540145141e-08
4.540483194e-08
4.540953055e-08
4.541645525e-08
4.542640631e-08
4.543934863e-08
4.545250304e-08
4.545633261e-08
1.241140702e-06
2.11157974e-07
5.250614455e-07
4.75278169e-06
8.506241216e-06
6.883930329e-06
3.427599067e-06
7.385957524e-07
1.375215642e-07
6.376663883e-08
5.036788488e-08
4.685119672e-08
4.563808356e-08
4.515410638e-08
4.495256903e-08
4.487649748e-08
4.488076382e-08
4.493321002e-08
4.499360253e-08
4.50511522e-08
4.510118841e-08
4.514276323e-08
4.517674875e-08
4.520459609e-08
4.522763385e-08
4.524687538e-08
4.526308034e-08
4.527686014e-08
4.52887251e-08
4.529908912e-08
4.530827057e-08
4.531650491e-08
4.532396399e-08
4.533077447e-08
4.53370322e-08
4.534281203e-08
4.534817387e-08
4.535316699e-08
4.535783224e-08
4.53622042e-08
4.536631209e-08
4.537018084e-08
4.537383192e-08
4.537728425e-08
4.538055435e-08
4.538365759e-08
4.538660714e-08
4.538941723e-08
4.539210531e-08
4.539470019e-08
4.539725635e-08
4.539988971e-08
4.540283202e-08
4.540651676e-08
4.541160986e-08
4.541893332e-08
4.542910949e-08
4.544184703e-08
4.545420651e-08
4.545638864e-08
1.947229969e-06
3.267308802e-07
4.588311128e-07
2.988273492e-06
1.136123586e-05
9.387420104e-06
5.228091351e-06
1.540933526e-06
2.460445416e-07
8.082215745e-08
5.377739481e-08
4.782109303e-08
4.599656875e-08
4.530328451e-08
4.50134153e-08
4.489616677e-08
4.488067452e-08
4.492347896e-08
4.497904079e-08
4.503439624e-08
4.508389272e-08
4.512604467e-08
4.516135156e-08
4.519094887e-08
4.521591717e-08
4.523707499e-08
4.525503661e-08
4.527032742e-08
4.528343475e-08
4.529479601e-08
4.530477428e-08
4.53136512e-08
4.53216367e-08
4.532888579e-08
4.533551441e-08
4.534161165e-08
4.534724763e-08
4.535247917e-08
4.535735288e-08
4.536190792e-08
4.536617721e-08
4.537018888e-08
4.537396708e-08
4.537753301e-08
4.538090515e-08
4.538410044e-08
4.538713405e-08
4.539002275e-08
4.539278815e-08
4.539546769e-08
4.539813025e-08
4.540091291e-08
4.540407676e-08
4.54080752e-08
4.54135508e-08
4.542123361e-08
4.54315795e-08
4.544408249e-08
4.54556783e-08
4.545615291e-08
2.64575674e-06
4.514947509e-07
3.55491722e-07
2.383671373e-06
1.585933764e-05
1.261111926e-05
7.039178616e-06
2.669247048e-06
4.793476234e-07
1.195007839e-07
6.033318851e-08
4.942663069e-08
4.655583179e-08
4.553846026e-08
4.51180101e-08
4.494100887e-08
4.489700147e-08
4.492547508e-08
4.497329274e-08
4.502437047e-08
4.507165028e-08
4.511298046e-08
4.514842417e-08
4.517880549e-08
4.520497381e-08
4.522755369e-08
4.524698821e-08
4.526366512e-08
4.527798721e-08
4.529036372e-08
4.530116982e-08
4.531071791e-08
4.531925134e-08
4.532695359e-08
4.533396243e-08
4.534038278e-08
4.534629629e-08
4.5351768e-08
4.535685092e-08
4.536158905e-08
4.536601929e-08
4.537017319e-08
4.537407771e-08
4.537775628e-08
4.538122937e-08
4.538451563e-08
4.53876327e-08
4.539060063e-08
4.53934463e-08
4.539621714e-08
4.539899757e-08
4.540194545e-08
4.540534602e-08
4.540966128e-08
4.541550087e-08
4.54234997e-08
4.543395767e-08
4.544619148e-08
4.545704265e-08
4.545586632e-08
3.382879563e-06
5.632880066e-07
4.374615705e-07
2.702012774e-06