/*--------------------------------*- C++ -*----------------------------------*\
  =========                 |
  \\      /  F ield         | OpenFOAM: The Open Source CFD Toolbox
   \\    /   O peration     | Website:  https://openfoam.org
    \\  /    A nd           | Version:  10
     \\/     M anipulation  |
\*---------------------------------------------------------------------------*/
FoamFile
{
    format      ascii;
    class       volScalarField;
    location    "0.02498436188";
    object      CH3O_0;
}
// * * * * * * * * * * * * * * * * * * * * * * * * * * * * * * * * * * * * * //

dimensions      [0 0 0 0 0 0 0];

internalField   nonuniform List<scalar> 
5170
(
0
0
0
0
0
0
0
0
0
0
0
0
0
0
0
0
0
0
0
0
0
0
0
0
0
0
0
0
0
0
0
0
0
0
0
0
0
0
0
0
0
0
0
0
0
0
0
0
0
0
0
0
0
0
0
0
0
0
0
0
0
0
0
0
0
0
0
0
0
0
0
0
0
0
0
0
0
0
0
0
0
0
0
0
0
0
0
0
0
0
0
0
0
0
0
0
0
0
0
7.813730906e-09
5.416197445e-20
5.34002927e-20
5.37199197e-20
4.524352004e-20
3.789610704e-20
2.531298974e-20
1.680612538e-20
1.670926722e-20
1.157762641e-20
7.253562371e-21
6.288910219e-21
7.936703419e-21
6.018042878e-21
2.335057724e-21
1.527380836e-21
1.398356756e-21
3.5681299e-21
2.001933862e-21
8.916080503e-22
0
0
0
1.274758541e-22
0
0
1.172110522e-16
2.340157437e-18
0
5.241895087e-18
2.526251891e-17
1.404012049e-16
6.014727569e-17
2.758093328e-17
1.643903879e-17
5.763035661e-16
5.897885751e-16
8.659140939e-17
4.338108843e-17
5.27697133e-16
3.159276608e-17
4.095972772e-17
5.510328644e-16
5.301993469e-16
0
0
0
4.702275985e-17
0
0
0
0
0
0
0
0
0
0
0
0
0
0
0
0
0
0
0
0
0
0
0
0
0
0
0
0
0
0
0
0
0
0
0
0
0
0
0
0
0
0
0
5.590372183e-11
6.804977991e-14
0
0
0
1.012378708e-08
5.38985906e-10
1.068959199e-10
9.467192251e-12
1.863948503e-13
0
0
3.646006851e-08
6.357104606e-07
9.429043247e-06
0
4.178207653e-09
1.428118412e-07
1.594930943e-06
1.310331419e-05
0
1.787595401e-08
2.656406396e-07
2.442898456e-06
1.179730701e-05
1.043521691e-10
4.249918636e-08
4.273341631e-07
2.958837843e-06
9.082054543e-06
5.280626359e-09
8.154545434e-08
6.245543776e-07
3.132708606e-06
6.697135919e-06
1.7027976e-08
1.366392852e-07
7.910646361e-07
3.056444486e-06
5.037788899e-06
3.773053534e-08
2.102179032e-07
9.508950945e-07
2.874549414e-06
3.995756779e-06
6.580733937e-08
2.778390723e-07
1.090428302e-06
2.643673744e-06
3.231114379e-06
9.874469019e-08
3.139543815e-07
1.196024572e-06
2.389491384e-06
2.620677841e-06
1.470906321e-07
4.125444601e-07
1.256727802e-06
2.106964958e-06
2.066892976e-06
2.163985366e-07
5.275715159e-07
1.277858697e-06
1.851492875e-06
1.675519247e-06
2.864927177e-07
6.415434257e-07
1.261119382e-06
1.617109081e-06
1.356368213e-06
3.954239624e-07
7.401266247e-07
1.206094513e-06
1.380662616e-06
1.064064369e-06
5.232071782e-07
8.088986719e-07
1.12425761e-06
1.164580956e-06
8.427784617e-07
6.454367943e-07
8.425541985e-07
1.021947667e-06
9.668879725e-07
6.673637223e-07
7.172394915e-07
8.29233072e-07
8.985735813e-07
7.795476861e-07
5.174945887e-07
7.267896079e-07
7.718018565e-07
7.587608761e-07
6.151690647e-07
4.07504255e-07
6.742533581e-07
6.749154497e-07
6.131873548e-07
4.690527603e-07
3.059197912e-07
5.748519159e-07
5.568826442e-07
4.828729628e-07
3.643563612e-07
2.570947807e-07
4.393572212e-07
4.15851016e-07
3.579245198e-07
2.814896049e-07
2.172638471e-07
3.087782809e-07
2.939941098e-07
2.636945026e-07
2.292002263e-07
2.047134979e-07
2.428894619e-07
2.407018167e-07
2.377148098e-07
2.387551676e-07
2.503330724e-07
2.510000925e-07
2.566684146e-07
2.70404954e-07
2.947256043e-07
3.338034652e-07
2.752139205e-07
2.826777655e-07
2.99729532e-07
3.272028764e-07
3.668347931e-07
2.598799299e-07
2.646000219e-07
2.748606317e-07
2.899729542e-07
3.097203314e-07
1.881745457e-07
1.892735035e-07
1.913656187e-07
1.939817616e-07
1.965495436e-07
1.077640088e-07
1.075369117e-07
1.067671982e-07
1.052734049e-07
1.030185899e-07
5.244588554e-08
5.208014988e-08
5.114851786e-08
4.963789792e-08
4.760415988e-08
2.296388337e-08
2.275422159e-08
2.224572463e-08
2.1446954e-08
2.039958373e-08
9.517906492e-09
9.442664103e-09
9.273997157e-09
8.911357324e-09
8.410762965e-09
3.652733623e-09
3.625811423e-09
3.563796787e-09
3.49820838e-09
3.375007376e-09
1.62343196e-09
1.608766937e-09
1.575059646e-09
1.525022066e-09
1.461322353e-09
7.823212938e-10
7.772441483e-10
7.644427692e-10
7.483641237e-10
7.283766382e-10
4.913422772e-10
4.90459398e-10
4.884331145e-10
4.857142889e-10
4.827956241e-10
4.196586602e-10
4.20538495e-10
4.224492708e-10
4.25866519e-10
4.307279384e-10
4.295927696e-10
4.319161559e-10
4.371218766e-10
4.450852057e-10
4.556890717e-10
4.551039432e-10
4.582185932e-10
4.650764828e-10
4.756560453e-10
4.896620917e-10
4.434299674e-10
4.474466089e-10
4.562821258e-10
4.695717944e-10
4.873385482e-10
3.897165475e-10
3.94035305e-10
4.034697782e-10
4.177173061e-10
4.369531667e-10
2.847985437e-10
2.884500809e-10
2.96229855e-10
3.074235494e-10
3.220872897e-10
1.572311754e-10
1.597294359e-10
1.650657485e-10
1.729667992e-10
1.83333662e-10
4.425311202e-11
4.613106041e-11
5.020368169e-11
5.643260723e-11
6.49360934e-11
1.422706165e-11
1.719563611e-11
1.898059443e-11
2.113246046e-11
2.376343268e-11
8.777996511e-14
9.27461633e-14
6.178103161e-14
3.616711229e-14
1.869999724e-13
0
0
0
0
0
5.537303654e-13
5.300303857e-13
4.551587541e-13
2.956848488e-13
1.056465463e-13
0
0
0
0
0
2.714867536e-12
2.641510333e-12
2.57596629e-12
2.340515238e-12
2.060679611e-12
3.5136683e-12
3.449109728e-12
3.296347033e-12
3.04378276e-12
2.681126964e-12
1.386132414e-12
1.379560822e-12
1.335612527e-12
1.22590492e-12
1.045414446e-12
0
0
0
0
0
2.394190849e-11
2.383010408e-11
2.411938012e-11
2.287210769e-11
2.095749455e-11
5.410670102e-11
5.313517987e-11
5.108227002e-11
4.806667561e-11
4.422224919e-11
7.589619678e-11
7.456863027e-11
7.173036828e-11
6.755051575e-11
6.213507998e-11
8.584558034e-11
8.423935403e-11
8.082753878e-11
7.586023547e-11
6.953680808e-11
9.836323092e-11
9.647837011e-11
9.24771172e-11
8.666406966e-11
7.930112905e-11
1.237816357e-10
1.215220457e-10
1.16735094e-10
1.097924798e-10
1.010032498e-10
1.816715805e-10
1.788157388e-10
1.727569379e-10
1.639324486e-10
1.526787383e-10
2.779657381e-10
2.741243366e-10
2.659473313e-10
2.539612949e-10
2.385327344e-10
4.054186539e-10
4.001121896e-10
3.887899964e-10
3.721623266e-10
3.507822762e-10
5.606209563e-10
5.542338417e-10
5.40610954e-10
5.205663773e-10
4.946087402e-10
7.421451961e-10
7.344636321e-10
7.180561865e-10
6.93869552e-10
6.625058874e-10
8.823703318e-10
8.752988678e-10
8.604608507e-10
8.393141706e-10
8.133948557e-10
1.0457532e-09
1.037340322e-09
1.019309911e-09
9.926275968e-10
9.577674968e-10
1.286882168e-09
1.276833683e-09
1.255266813e-09
1.223271381e-09
1.181373215e-09
1.621134552e-09
1.608627283e-09
1.581781392e-09
1.541920828e-09
1.489621933e-09
1.975022486e-09
1.958323868e-09
1.922563907e-09
1.869747213e-09
1.801009381e-09
2.162770309e-09
2.145993403e-09
2.110043382e-09
2.05672703e-09
1.98678766e-09
2.362139312e-09
2.349701764e-09
2.323706011e-09
2.286388948e-09
2.239989044e-09
2.852451043e-09
2.846824221e-09
2.835838489e-09
2.821408202e-09
2.805872194e-09
1.403481859e-05
1.349520308e-05
1.023865046e-05
7.217000532e-06
5.112397167e-06
3.77346132e-06
2.99780274e-06
2.39716045e-06
1.918427501e-06
1.469420788e-06
1.204208239e-06
9.700592e-07
7.450220282e-07
5.990375046e-07
4.8247249e-07
3.78423696e-07
3.022746436e-07
2.404296712e-07
2.136317136e-07
1.95047481e-07
2.012452808e-07
2.685174096e-07
3.719984453e-07
4.018332246e-07
3.257949086e-07
1.984901118e-07
1.013535466e-07
4.619711001e-08
1.966020349e-08
8.052004941e-09
3.253988762e-09
1.4177659e-09
7.158942286e-10
4.814448383e-10
4.346632305e-10
4.638753675e-10
5.006369449e-10
5.015862824e-10
4.514556204e-10
3.341359188e-10
1.921389038e-10
7.217776455e-11
2.587933976e-11
3.043834514e-13
0
0
0
1.922395708e-12
2.420232133e-12
9.291785545e-13
0
1.938772579e-11
4.115358197e-11
5.769548448e-11
6.447014077e-11
7.338237125e-11
9.397298773e-11
1.435627755e-10
2.258867966e-10
3.333589425e-10
4.732156664e-10
6.366843049e-10
7.921017161e-10
9.287965158e-10
1.146504233e-09
1.445888774e-09
1.744228553e-09
1.928955986e-09
2.202129777e-09
2.793585634e-09
3.078117476e-06
2.19871925e-07
6.259080897e-09
2.311594759e-10
1.532438382e-11
2.61849503e-06
8.760202898e-07
5.094633411e-08
1.545878345e-09
3.921579283e-10
2.226079627e-06
6.023291446e-07
5.789481226e-08
3.185256421e-09
2.4694615e-09
1.744204958e-06
4.790060016e-07
1.259763779e-07
9.967948831e-09
3.06346977e-09
1.36215481e-06
4.05547971e-07
3.745147921e-07
3.723339533e-08
3.776027763e-09
1.097847584e-06
3.780987412e-07
5.172987439e-07
6.49965533e-08
6.533836995e-09
9.784036341e-07
4.240239676e-07
5.139521603e-07
7.494678563e-08
8.761681231e-09
8.554621847e-07
3.78430765e-07
4.012941312e-07
8.700110049e-08
1.161560574e-08
7.508803258e-07
3.360587505e-07
3.673789305e-07
1.861112219e-07
2.690677705e-08
5.585660411e-07
2.65079537e-07
2.973394153e-07
2.564083675e-07
4.217183033e-08
5.335857106e-07
2.546755244e-07
2.775617436e-07
2.958371385e-07
5.369303383e-08
4.360064943e-07
2.335902919e-07
2.793808296e-07
3.226143616e-07
6.605500659e-08
3.12445681e-07
2.03488154e-07
2.506702445e-07
3.317401214e-07
1.099632946e-07
2.886816231e-07
1.92845571e-07
2.320021102e-07
3.291477894e-07
1.564179463e-07
2.481391554e-07
1.728226737e-07
2.18193093e-07
3.188748771e-07
1.832310709e-07
2.103591717e-07
1.531768861e-07
2.081523184e-07
3.070310593e-07
2.077393474e-07
1.763005206e-07
1.350851102e-07
1.995013467e-07
2.990961905e-07
2.283097312e-07
1.609880892e-07
1.492694645e-07
2.142323986e-07
3.151328221e-07
2.336124446e-07
1.617596104e-07
1.750919611e-07
2.636976322e-07
3.725184714e-07
2.298215321e-07
1.715274325e-07
2.250375792e-07
4.044426156e-07
7.281125918e-07
8.240463353e-07
1.999164024e-07
2.796958416e-07
5.172786893e-07
1.121791934e-06
2.437356934e-06
2.946941371e-07
4.207419886e-07
7.176769856e-07
1.379785739e-06
2.774942393e-06
4.291409049e-07
5.950456748e-07
8.778058124e-07
1.307247592e-06
1.854304504e-06
4.564281065e-07
5.721948334e-07
7.11864586e-07
8.40762234e-07
8.965489601e-07
3.531780003e-07
3.932353347e-07
4.185795998e-07
4.146557791e-07
3.728784682e-07
2.045267493e-07
2.054172248e-07
1.949045154e-07
1.726561515e-07
1.413698653e-07
1.008916269e-07
9.521065797e-08
8.481313886e-08
7.098702867e-08
5.584556354e-08
4.509906556e-08
4.11613612e-08
3.550964477e-08
2.880195483e-08
2.245883791e-08
1.893615469e-08
1.71768724e-08
1.473203177e-08
1.170357326e-08
8.667954143e-09
7.698185832e-09
6.638123048e-09
5.789927736e-09
4.787175293e-09
3.706937916e-09
3.127615408e-09
2.783240932e-09
2.349285498e-09
2.011095389e-09
1.646584087e-09
1.374755878e-09
1.25154465e-09
1.090979603e-09
9.459993995e-10
8.132741153e-10
7.022625972e-10
6.643746054e-10
6.252101513e-10
5.789190914e-10
5.358056669e-10
4.808315295e-10
4.734336072e-10
4.642767673e-10
4.647978464e-10
4.771103412e-10
4.390976339e-10
4.510515045e-10
4.689128767e-10
4.954071715e-10
5.271322511e-10
4.738968138e-10
4.970403083e-10
5.287407352e-10
5.6809048e-10
6.144109822e-10
5.151696633e-10
5.468277222e-10
5.876663004e-10
6.378485699e-10
6.969083098e-10
5.220982549e-10
5.626416266e-10
6.145458796e-10
6.636882945e-10
7.085010239e-10
4.731518144e-10
5.124001717e-10
5.542015501e-10
5.938355763e-10
6.297675903e-10
3.537389026e-10
3.849496809e-10
4.160668737e-10
4.455346462e-10
4.760107619e-10
2.073908211e-10
2.331802084e-10
2.603388515e-10
2.941468903e-10
3.193495155e-10
8.552883945e-11
1.132058097e-10
1.328006854e-10
1.468068864e-10
1.574968381e-10
2.949822762e-11
3.535774166e-11
3.962005893e-11
4.182688323e-11
4.281503591e-11
3.850520414e-13
4.12919082e-13
4.181448054e-13
1.50215562e-12
1.958921591e-12
0
0
0
0
0
0
0
0
0
0
0
0
0
3.559604029e-13
1.058551401e-12
1.767583688e-12
2.044296836e-12
1.862898502e-12
1.355089049e-12
5.75744623e-13
2.196549444e-12
1.672464729e-12
1.143749603e-12
4.408703782e-13
0
8.089008988e-13
0
0
0
3.026781824e-13
0
5.022454415e-13
0
9.131352618e-13
1.145118987e-12
1.68022522e-11
1.285162474e-11
9.269880172e-12
6.264587215e-12
3.894914207e-12
3.620336538e-11
2.830820996e-11
2.065162934e-11
1.33780243e-11
6.32992338e-12
5.048592153e-11
3.782665301e-11
2.645809613e-11
1.659176796e-11
8.758963699e-12
5.627634306e-11
4.308711116e-11
3.048703292e-11
1.921431001e-11
9.767564157e-12
6.385185879e-11
4.830247829e-11
3.378822487e-11
2.121798982e-11
1.121666396e-11
8.251739267e-11
6.438282406e-11
4.709834534e-11
3.159482947e-11
1.868796259e-11
1.28525679e-10
1.043652479e-10
8.064498133e-11
5.82875159e-11
3.82192585e-11
2.049074436e-10
1.705373699e-10
1.35839414e-10
1.01857382e-10
7.001175922e-11
3.047180202e-10
2.579476199e-10
2.103946125e-10
1.644480173e-10
1.211949594e-10
4.376559752e-10
3.789699986e-10
3.193403423e-10
2.608566279e-10
2.0645102e-10
5.939557723e-10
5.235255084e-10
4.529864579e-10
3.866971504e-10
3.292982419e-10
7.555995544e-10
6.868537101e-10
5.922874795e-10
5.027690934e-10
4.184147103e-10
8.814045464e-10
7.989790578e-10
7.106431563e-10
6.195960725e-10
5.283746838e-10
1.089224906e-09
9.907855369e-10
8.859753375e-10
7.765921089e-10
6.646053845e-10
1.373622185e-09
1.248201366e-09
1.112054607e-09
9.664678077e-10
8.14823754e-10
1.651508766e-09
1.49130316e-09
1.31494248e-09
1.135397214e-09
9.600633512e-10
1.833282514e-09
1.674813441e-09
1.496926195e-09
1.341259224e-09
1.200368944e-09
2.130610438e-09
2.024935407e-09
1.927066927e-09
1.844567517e-09
1.784608593e-09
2.760493174e-09
2.721927149e-09
2.70562091e-09
2.715056508e-09
2.715832004e-09
4.048480708e-11
0
0
0
0
0
0
0
0
0
0
0
0
0
0
0
0
0
0
0
0
0
0
0
0
0
0
0
0
0
0
0
0
0
0
0
0
0
0
0
0
0
0
0
0
0
0
0
0
0
0
0
0
0
0
0
0
0
0
0
5.974760793e-10
1.685421908e-09
0
0
0
0
0
0
0
0
0
0
0
0
0
0
0
0
0
0
0
0
0
0
0
0
0
0
0
0
0
0
0
0
0
0
0
0
0
0
0
0
0
0
0
0
0
0
0
0
0
0
0
0
0
0
0
0
0
0
2.817587559e-09
0
0
0
0
0
0
0
0
0
0
0
0
0
0
0
0
0
0
0
0
0
0
0
0
0
0
0
0
0
0
0
0
0
0
0
0
0
0
0
0
0
0
0
0
0
0
0
0
0
0
0
0
0
0
0
0
0
0
0
1.115685755e-08
1.323590778e-09
0
0
0
0
0
0
0
0
0
0
0
0
0
0
0
0
0
0
0
0
0
0
0
0
0
0
0
0
0
0
0
0
0
0
0
0
0
0
0
0
0
0
0
0
0
0
0
0
0
0
0
0
0
0
0
0
0
0
1.191890882e-08
1.087404998e-08
0
0
0
0
0
0
0
0
0
0
0
0
0
0
0
0
0
0
0
0
0
0
0
0
0
0
0
0
0
0
0
0
0
0
0
0
0
0
0
0
0
0
0
0
0
0
0
0
0
0
0
0
0
0
0
0
0
0
6.791965071e-09
3.223476497e-08
5.792038771e-09
2.165968276e-09
0
0
0
0
0
0
0
0
0
0
0
0
0
0
0
0
0
0
0
0
0
0
0
0
0
0
0
0
0
0
0
0
0
0
0
0
0
0
0
0
0
0
0
0
0
0
0
0
0
0
0
0
0
0
0
0
3.378547474e-09
2.299457105e-08
2.958199834e-08
2.988539236e-09
9.602300704e-10
0
0
0
0
0
0
0
0
0
0
0
0
0
0
0
0
0
0
0
0
0
0
0
0
0
0
0
0
0
0
0
0
0
0
0
0
0
0
0
0
0
0
0
0
0
0
0
0
0
0
0
0
0
0
0
1.89691188e-09
1.101886347e-08
5.445467049e-08
1.861091475e-08
3.031381085e-09
7.404715378e-10
0
0
0
0
0
0
0
0
0
0
0
0
0
0
0
0
0
0
0
0
0
0
0
0
0
0
0
0
0
0
0
0
0
0
0
0
0
0
0
0
0
0
0
0
0
0
0
0
0
0
0
0
0
0
3.006485048e-09
6.154963977e-09
4.784340942e-08
6.330441286e-08
1.173404888e-08
5.569181245e-09
3.125775676e-10
0
0
0
0
0
0
0
0
0
0
0
0
0
0
0
0
0
0
0
0
0
0
0
0
0
0
0
0
0
0
0
0
0
0
0
0
0
0
0
0
0
0
0
0
0
0
0
0
0
0
0
0
0
6.173024235e-09
3.721024153e-09
3.10695076e-08
1.040319765e-07
4.557644857e-08
5.439273408e-09
1.811112794e-09
0
0
0
0
0
0
0
0
0
0
0
0
0
0
0
0
0
0
0
0
0
0
0
0
0
0
0
0
0
0
0
0
0
0
0
0
0
0
0
0
0
0
0
0
0
0
0
0
0
0
0
0
0
8.766882442e-09
7.40333519e-10
1.697893296e-08
1.105680835e-07
1.19844299e-07
2.386225877e-08
8.008684865e-09
6.519378497e-10
0
0
0
0
0
0
0
0
0
0
0
0
0
0
0
0
0
0
0
0
0
0
0
0
0
0
0
0
0
0
0
0
0
0
0
0
0
0
0
0
0
0
0
0
0
0
0
0
0
0
0
0
9.362355111e-09
2.064391234e-09
1.123226311e-08
1.00087602e-07
2.205569706e-07
7.426603629e-08
7.932149648e-09
2.374804088e-09
9.766405078e-11
0
0
0
0
0
0
0
0
0
0
0
0
0
0
0
0
0
0
0
0
0
0
0
0
0
0
0
0
0
0
0
0
0
0
0
0
0
0
0
0
0
0
0
0
0
0
0
0
0
0
0
1.628325726e-08
2.995526667e-09
8.327270055e-09
7.606149637e-08
3.109268212e-07
1.867908245e-07
2.443733879e-08
6.300789998e-09
5.221749162e-10
0
0
0
0
0
0
0
0
0
0
0
0
0
0
0
0
0
0
0
0
0
0
0
0
0
0
0
0
0
0
0
0
0
0
0
0
0
0
0
0
0
0
0
0
0
0
0
0
0
0
0
2.536304378e-08
5.252076545e-09
9.098673012e-09
6.013552112e-08
4.074898458e-07
4.215086069e-07
7.341651748e-08
1.731582341e-08
1.369440718e-09
1.037513567e-11
0
0
0
0
0
0
0
0
0
0
0
0
0
0
0
0
0
0
0
0
0
0
0
0
0
0
0
0
0
0
0
0
0
0
0
0
0
0
0
0
0
0
0
0
0
0
0
0
0
0
3.267779887e-08
7.302584916e-09
9.098248629e-09
6.581374282e-08
5.550964436e-07
8.162931766e-07
1.669749104e-07
2.423635097e-08
3.23316579e-09
1.342700207e-10
0
0
0
0
0
0
0
0
0
0
0
0
0
0
0
0
0
0
0
0
0
0
0
0
0
0
0
0
0
0
0
0
0
0
0
0
0
0
0
0
0
0
0
0
0
0
0
0
0
0
4.040152455e-08
8.604140698e-09
1.446351811e-08
1.003309941e-07
8.792137346e-07
1.374871842e-06
2.772808196e-07
3.228062424e-08
4.675450213e-09
2.670872792e-10
0
0
0
0
0
0
0
0
0
0
0
0
0
0
0
0
0
0
0
0
0
0
0
0
0
0
0
0
0
0
0
0
0
0
0
0
0
0
0
0
0
0
0
0
0
0
0
0
0
0
4.845354047e-08
1.346703119e-08
3.238511852e-08
2.165100749e-07
1.814181444e-06
1.719473821e-06
2.995876979e-07
3.389802271e-08
5.848358803e-09
3.413628435e-10
0
0
0
0
0
0
0
0
0
0
0
0
0
0
0
0
0
0
0
0
0
0
0
0
0
0
0
0
0
0
0
0
0
0
0
0
0
0
0
0
0
0
0
0
0
0
0
0
0
0
5.479207857e-08
3.582076624e-08
1.609569541e-07
1.117089248e-06
4.13585161e-06
1.409063282e-06
2.167242819e-07
2.16388151e-08
4.153467574e-09
3.821327788e-10
0
0
0
0
0
0
0
0
0
0
0
0
0
0
0
0
0
0
0
0
0
0
0
0
0
0
0
0
0
0
0
0
0
0
0
0
0
0
0
0
0
0
0
0
0
0
0
0
0
0
7.426048637e-08
1.363134916e-07
6.314795884e-07
4.390763523e-06
3.581006183e-06
7.289721559e-07
1.035726825e-07
1.97459225e-08
4.070825858e-09
1.163085937e-09
6.114916247e-12
0
0
0
0
0
0
0
0
0
0
0
0
0
0
0
0
0
0
0
0
0
0
0
0
0
0
0
0
0
0
0
0
0
0
0
0
0
0
0
0
0
0
0
0
0
0
0
0
0
6.24679259e-07
1.889415565e-06
5.561385272e-06
6.157979765e-06
1.719637998e-06
3.258947971e-07
4.98148984e-08
1.140120176e-08
2.7593264e-09
1.141063729e-09
4.7179237e-10
0
0
0
0
0
0
0
0
0
0
0
0
0
0
0
0
0
0
0
0
0
0
0
0
0
0
0
0
0
0
0
0
0
0
0
0
0
0
0
0
0
0
0
0
0
0
0
0
0
4.372709846e-06
7.309819561e-06
6.924897917e-06
2.61658924e-06
6.69659585e-07
1.39112093e-07
2.518750884e-08
6.269214951e-09
1.811194281e-09
8.189650473e-10
8.748765535e-10
4.037678759e-10
0
0
0
0
0
0
0
0
0
0
0
0
0
0
0
0
0
0
0
0
0
0
0
0
0
0
0
0
0
0
0
0
0
0
0
0
0
0
0
0
0
0
0
0
0
0
0
0
5.325062764e-06
5.054722549e-06
2.562217104e-06
8.931672544e-07
2.500157596e-07
5.801128328e-08
1.06771008e-08
2.09686511e-09
6.962421455e-11
3.249888373e-10
3.216365014e-10
8.404150312e-10
4.258113572e-10
0
0
0
0
0
0
0
0
0
0
0
0
0
0
0
0
0
0
0
0
0
0
0
0
0
0
0
0
0
0
0
0
0
0
0
0
0
0
0
0
0
0
0
0
0
0
0
2.303554728e-06
1.655974914e-06
8.046436753e-07
3.035484193e-07
9.471833555e-08
2.719003125e-08
7.130371366e-09
1.489415857e-09
4.130880082e-10
7.593710606e-11
2.022775067e-10
4.912841292e-10
9.102129551e-10
4.660640546e-10
2.101235098e-11
0
0
0
0
0
0
0
0
0
0
0
0
0
0
0
0
0
0
0
0
0
0
0
0
0
0
0
0
0
0
0
0
0
0
0
0
0
0
0
0
0
0
0
0
0
8.122504951e-07
5.290323778e-07
2.639649886e-07
1.069316838e-07
3.64127049e-08
9.296355673e-09
3.314269813e-09
1.185626692e-09
4.678196236e-10
1.821914986e-10
2.159923437e-10
2.961273189e-10
5.385912765e-10
1.074087702e-09
5.812353575e-10
7.470674771e-11
0
0
0
0
0
0
0
0
0
0
0
0
0
0
0
0
0
0
0
0
0
0
0
0
0
0
0
0
0
0
0
0
0
0
0
0
0
0
0
0
0
0
0
0
2.892719037e-07
1.774429291e-07
8.757082357e-08
3.819531359e-08
1.4634654e-08
5.655688654e-09
2.330940049e-09
8.247957696e-10
3.442618856e-10
2.006816574e-10
6.976037836e-11
3.257262284e-10
5.789667387e-10
9.603838714e-10
1.154710825e-09
4.118131387e-10
0
0
0
0
0
0
0
0
0
0
0
0
0
0
0
0
0
0
0
0
0
0
0
0
0
0
0
0
0
0
0
0
0
0
0
0
0
0
0
0
0
0
0
0
1.020210852e-07
6.211957186e-08
3.326905366e-08
1.651725355e-08
6.962286394e-09
2.755050202e-09
1.225372339e-09
4.38182688e-10
1.46136604e-10
2.610066888e-10
1.838691041e-10
1.914557118e-11
4.641786561e-10
8.61060671e-10
1.311135439e-09
1.260207289e-09
3.70218629e-10
0
0
0
0
0
0
0
0
0
0
0
0
0
0
0
0
0
0
0
0
0
0
0
0
0
0
0
0
0
0
0
0
0
0
0
0
0
0
0
0
0
0
0
3.930337793e-08
2.419743763e-08
1.347335262e-08
6.081388126e-09
3.230460185e-09
1.033496407e-09
6.263102729e-10
2.150789458e-10
8.817848997e-11
3.029536011e-10
4.308244773e-10
3.436905726e-10
6.259011451e-11
4.737148009e-10
8.101478082e-10
1.64226458e-09
1.693710205e-09
5.422597712e-10
0
0
0
0
0
0
0
0
0
0
0
0
0
0
0
0
0
0
0
0
0
0
0
0
0
0
0
0
0
0
0
0
0
0
0
0
0
0
0
0
0
0
1.623021699e-08
1.029125958e-08
5.713501512e-09
3.245283219e-09
1.597824129e-09
7.654520833e-10
4.849649414e-10
3.030715082e-10
2.045611768e-10
3.937369391e-10
4.873584368e-10
5.228147772e-10
3.633529559e-11
4.65751618e-10
6.213054224e-10
8.445983547e-10
1.731430834e-09
1.731586515e-09
4.713849312e-10
0
0
0
0
0
0
0
0
0
0
0
0
0
0
0
0
0
0
0
0
0
0
0
0
0
0
0
0
0
0
0
0
0
0
0
0
0
0
0
0
0
6.273054775e-09
3.917188343e-09
2.480115276e-09
1.379175006e-09
6.940156608e-10
5.038576304e-10
3.911365405e-10
3.090538928e-10
1.516568173e-10
0
4.814590922e-10
6.389508941e-10
6.416356146e-10
7.212948929e-11
9.359167032e-10
1.363729957e-09
1.959396609e-09
1.916558846e-09
8.19490954e-10
8.567610181e-11
0
0
0
0
0
0
0
0
0
0
0
0
0
0
0
0
0
0
0
0
0
0
0
0
0
0
0
0
0
0
0
0
0
0
0
0
0
0
0
0
2.713503792e-09
1.846152195e-09
1.207736456e-09
6.573796714e-10
5.218500087e-10
4.369356108e-10
3.96554404e-10
3.813978799e-10
3.185054117e-10
0
5.009445579e-10
7.176929758e-10
8.631863231e-10
8.050141458e-10
2.825493614e-10
7.143709323e-10
8.596246712e-10
1.632983375e-09
1.727722561e-09
6.645501834e-10
0
0
0
0
0
0
0
0
0
0
0
0
0
0
0
0
0
0
0
0
0
0
0
0
0
0
0
0
0
0
0
0
0
0
0
0
0
0
0
0
1.283952867e-09
9.330532678e-10
6.439644515e-10
4.940889151e-10
4.465068863e-10
4.356568691e-10
4.547939398e-10
5.007993106e-10
5.684079928e-10
6.186884783e-10
7.052500593e-10
8.188515855e-10
8.138811889e-10
7.090245523e-10
5.756419641e-11
5.670753241e-10
5.623172844e-10
8.698356904e-10
1.732251589e-09
1.833260831e-09
6.29197062e-10
0
0
0
0
0
0
0
0
0
0
0
0
0
0
0
0
0
0
0
0
0
0
0
0
0
0
0
0
0
0
0
0
0
0
0
0
0
0
0
6.705963109e-10
5.722161769e-10
4.69713671e-10
4.609205903e-10
4.668118676e-10
4.962024958e-10
5.462375302e-10
6.08668541e-10
6.821283577e-10
7.454097022e-10
7.72305662e-10
8.015367897e-10
8.076016652e-10
8.040794503e-10
4.062159487e-10
3.717942901e-10
5.533298444e-10
6.304913906e-10
1.709875092e-09
2.028342204e-09
1.017458461e-09
2.212144013e-10
0
0
0
0
0
0
0
0
0
0
0
0
0
0
0
0
0
0
0
0
0
0
0
0
0
0
0
0
0
0
0
0
0
0
0
0
0
0
5.039682075e-10
4.840267049e-10
4.82119794e-10
5.028441887e-10
5.431074174e-10
5.939932702e-10
6.569022061e-10
7.21544749e-10
7.874262015e-10
8.389706192e-10
8.502896424e-10
8.345907044e-10
8.230060468e-10
7.917022369e-10
6.646423055e-10
4.437914234e-11
5.54577686e-10
5.872436268e-10
8.8863753e-10
1.845045062e-09
1.99958438e-09
8.733063709e-10
1.071664834e-10
0
0
0
0
0
0
0
0
0
0
0
0
0
0
0
0
0
0
0
0
0
0
0
0
0
0
0
0
0
0
0
0
0
0
0
0
0
4.930488915e-10
5.181726628e-10
5.597294084e-10
6.120406716e-10
6.733923866e-10
7.36838441e-10
7.961733098e-10
8.523959241e-10
8.948697419e-10
9.251378849e-10
9.315272445e-10
9.110265901e-10
9.124369821e-10
9.046207021e-10
9.317830979e-10
6.45508659e-10
1.035212247e-09
1.295042062e-09
1.714195059e-09
2.534026917e-09
2.797375572e-09
2.258724465e-09
7.713421561e-10
0
0
0
0
0
0
0
0
0
0
0
0
0
0
0
0
0
0
0
0
0
0
0
0
0
0
0
0
0
0
0
0
0
0
0
0
0
5.706123953e-10
6.304088927e-10
6.975129563e-10
7.760306165e-10
8.395144448e-10
9.004667015e-10
9.591709525e-10
9.881491846e-10
1.005338943e-09
1.016667527e-09
1.006833218e-09
9.913749661e-10
9.778536923e-10
9.82826039e-10
1.031161519e-09
1.062421409e-09
6.517449288e-10
1.225527201e-09
1.32052358e-09
1.40591066e-09
2.38859518e-09
2.442707204e-09
1.195162892e-09
2.941277857e-10
0
0
0
0
0
0
0
0
0
0
0
0
0
0
0
0
0
0
0
0
0
0
0
0
0
0
0
0
0
0
0
0
0
0
0
0
6.727958992e-10
7.456892724e-10
8.265884734e-10
9.106677578e-10
9.785889291e-10
1.038573028e-09
1.073744626e-09
1.078240882e-09
1.084582899e-09
1.060118739e-09
1.025137603e-09
1.001842875e-09
9.685027664e-10
9.670801189e-10
9.881364241e-10
1.044002968e-09
7.896519508e-10
1.157034341e-09
1.364176874e-09
1.668067365e-09
2.356776809e-09
2.675224747e-09
2.278838628e-09
9.33917516e-10
1.312039103e-10
0
0
0
0
0
0
0
0
0
0
0
0
0
0
0
0
0
0
0
0
0
0
0
0
0
0
0
0
0
0
0
0
0
0
0
7.56242329e-10
8.309675493e-10
9.174377675e-10
9.78449751e-10
1.027163284e-09
1.065010397e-09
1.077730593e-09
1.064171841e-09
1.058973677e-09
1.017551194e-09
9.795062797e-10
9.321833077e-10
8.833775563e-10
8.789055026e-10
8.616742849e-10
8.96924012e-10
6.492474341e-10
9.791449187e-10
1.130682133e-09
1.317855872e-09
1.554125081e-09
2.419627652e-09
2.4728377e-09
1.341345509e-09
4.367341376e-10
0
0
0
0
0
0
0
0
0
0
0
0
0
0
0
0
0
0
0
0
0
0
0
0
0
0
0
0
0
0
0
0
0
0
0
7.543020043e-10
8.14674358e-10
8.84888799e-10
9.253638654e-10
9.532522351e-10
9.712268631e-10
9.676095377e-10
9.430874502e-10
9.331493487e-10
8.952778833e-10
8.713098264e-10
8.12024436e-10
7.618660669e-10
7.660629888e-10
7.602986143e-10
8.152297615e-10
8.988221567e-10
8.937501083e-10
1.028717551e-09
1.177577079e-09
1.35082121e-09
1.608030344e-09
2.411578133e-09
2.249659153e-09
1.024029068e-09
2.223202801e-10
0
0
0
0
0
0
0
0
0
0
0
0
0
0
0
0
0
0
0
0
0
0
0
0
0
0
0
0
0
0
0
0
0
0
6.702242137e-10
7.318671518e-10
7.759402237e-10
8.006301016e-10
8.267509684e-10
8.218912087e-10
8.128348465e-10
7.973190569e-10
7.689320599e-10
7.275977248e-10
7.108842869e-10
6.576881633e-10
6.193348262e-10
6.116113758e-10
6.230239469e-10
6.824512459e-10
7.563117255e-10
5.184379093e-10
8.423387112e-10
9.770953809e-10
1.162129372e-09
1.323260061e-09
2.393801911e-09
2.636414539e-09
1.84862173e-09
6.687955602e-10
9.993985707e-12
0
0
0
0
0
0
0
0
0
0
0
0
0
0
0
0
0
0
0
0
0
0
0
0
0
0
0
0
0
0
0
0
0
5.234432949e-10
5.62118967e-10
5.890146227e-10
5.994609303e-10
6.188115694e-10
6.109217228e-10
6.050790614e-10
5.940655959e-10
5.708450192e-10
5.372267995e-10
5.337496576e-10
4.989377025e-10
4.826478647e-10
4.889417394e-10
5.277929277e-10
5.664081766e-10
6.167009515e-10
4.083026984e-10
7.421102853e-10
8.739480279e-10
1.059022817e-09
1.242285153e-09
1.455639921e-09
2.452946901e-09
2.389817535e-09
1.170895022e-09
3.142551932e-10
0
0
0
0
0
0
0
0
0
0
0
0
0
0
0
0
0
0
0
0
0
0
0
0
0
0
0
0
0
0
0
0
0
3.440669085e-10
3.635728767e-10
3.770547838e-10
3.979342879e-10
4.017819534e-10
3.916790536e-10
3.941189746e-10
3.876532192e-10
3.755208589e-10
3.556079734e-10
3.699615237e-10
3.556629011e-10
3.6306726e-10
3.94495579e-10
4.600257323e-10
5.208541977e-10
6.06192756e-10
7.16958314e-10
7.742308375e-10
8.51503186e-10
9.805095921e-10
1.167762761e-09
1.352185078e-09
2.512815915e-09
2.892999364e-09
2.375403292e-09
9.320778607e-10
1.319292749e-10
0
0
0
0
0
0
0
0
0
0
0
0
0
0
0
0
0
0
0
0
0
0
0
0
0
0
0
0
0
0
0
0
1.65688671e-10
1.744512008e-10
1.757842817e-10
1.931691322e-10
1.924224419e-10
1.901381111e-10
2.030082874e-10
2.071025264e-10
2.105852667e-10
2.045587232e-10
2.350478014e-10
2.436938633e-10
2.747700215e-10
3.288167836e-10
4.137301012e-10
4.874914477e-10
5.869277393e-10
7.002116691e-10
6.754076148e-10
8.253322405e-10
9.605966592e-10
1.158408694e-09
1.386139229e-09
1.809892963e-09
2.680468108e-09
2.595359733e-09
1.335165545e-09
4.138418063e-10
0
0
0
0
0
0
0
0
0
0
0
0
0
0
0
0
0
0
0
0
0
0
0
0
0
0
0
0
0
0
0
0
4.500641538e-11
4.198818474e-11
5.693259393e-11
6.040976689e-11
4.998651666e-11
5.11535603e-11
5.916380395e-11
7.302706765e-11
9.04409442e-11
9.763252168e-11
1.428014827e-10
1.729541833e-10
2.246342484e-10
2.94621654e-10
3.872259793e-10
4.637325174e-10
5.434053314e-10
6.178421456e-10
4.329459678e-10
7.890891808e-10
9.132859363e-10
1.075652607e-09
1.29083713e-09
1.509320565e-09
2.69215309e-09
3.069550528e-09
2.533357702e-09
1.068493137e-09
2.124489696e-10
0
0
0
0
0
0
0
0
0
0
0
0
0
0
0
0
0
0
0
0
0
0
0
0
0
0
0
0
0
0
0
0
7.602363385e-12
9.110211295e-12
3.340884678e-12
0
6.154150572e-12
9.019252397e-12
1.903450785e-11
3.382707151e-11
4.532366242e-11
1.006599053e-10
1.504876487e-10
2.254720079e-10
3.270502486e-10
4.27329089e-10
5.251707136e-10
6.090918472e-10
7.067506954e-10
8.245734663e-10
8.8000147e-10
9.349344013e-10
1.016981514e-09
1.136350271e-09
1.240678028e-09
2.357712576e-09
2.973820286e-09
2.788814004e-09
1.477982521e-09
4.989261686e-10
0
0
0
0
0
0
0
0
0
0
0
0
0
0
0
0
0
0
0
0
0
0
0
0
0
0
0
0
0
0
0
1.597485356e-13
1.46996732e-12
1.37575676e-12
0
0
6.580223966e-13
0
5.551964413e-13
5.456784901e-12
2.171921568e-11
8.620218335e-11
1.510781827e-10
2.451404741e-10
3.709701585e-10
4.766224656e-10
5.852874274e-10
6.831169478e-10
7.960752139e-10
9.286201097e-10
9.783146457e-10
1.021180648e-09
1.084975446e-09
1.187468612e-09
1.345188723e-09
1.660829617e-09
2.855677329e-09
3.190219223e-09
2.599480416e-09
1.108945611e-09
2.348003775e-10
0
0
0
0
0
0
0
0
0
0
0
0
0
0
0
0
0
0
0
0
0
0
0
0
0
0
0
0
0
0
6.474194974e-13
6.682081822e-13
0
0
1.679580044e-15
0
0
0
2.899236084e-12
2.103069292e-11
8.925824044e-11
1.591007824e-10
2.572869415e-10
3.842788627e-10
4.820040504e-10
6.08934112e-10
7.17901047e-10
8.361953473e-10
9.614737898e-10
1.003718965e-09
1.099219315e-09
1.149127972e-09
1.229556678e-09
1.374354895e-09
1.547079869e-09
2.726956861e-09
3.259830551e-09
2.937788003e-09
1.533613422e-09
5.219345282e-10
4.943554452e-14
0
0
0
0
0
0
0
0
0
0
0
0
0
0
0
0
0
0
0
0
0
0
0
0
0
0
0
0
0
6.598726052e-13
0
0
0
2.367216829e-13
0
0
4.193207468e-14
4.253991005e-12
3.199640998e-11
1.032266543e-10
1.754081532e-10
2.749101399e-10
3.997157528e-10
4.932197341e-10
6.162147203e-10
7.182055996e-10
8.233298628e-10
9.187723723e-10
9.433931172e-10
1.101806349e-09
1.171498077e-09
1.271172252e-09
1.422772847e-09
1.574984038e-09
1.860267304e-09
2.956142037e-09
3.079025727e-09
2.119015031e-09
9.238874471e-10
1.828234406e-10
0
0
0
0
0
0
0
0
0
0
0
0
0
0
0
0
0
0
0
0
0
0
0
0
0
0
0
0
0
0
0
0
2.981905239e-13
0
0
0
0
1.589618336e-12
4.688954998e-11
1.215087123e-10
1.982897107e-10
3.016288864e-10
4.262217842e-10
5.198195794e-10
6.439515946e-10
7.451913829e-10
8.536076534e-10
9.535778092e-10
1.061506515e-09
1.135368072e-09
1.198238843e-09
1.274498378e-09
1.380524329e-09
1.538378262e-09
1.758616144e-09
2.950659857e-09
3.387797699e-09
2.926610116e-09
1.491922024e-09
4.98633025e-10
5.951525111e-14
0
0
0
0
0
0
0
0
0
0
0
0
0
0
0
0
0
0
0
0
0
0
0
0
0
0
0
0
0
0
6.348512251e-13
5.282675675e-13
0
0
4.52829906e-13
8.208280036e-12
2.617680378e-11
1.004018172e-10
1.578228636e-10
2.291574352e-10
3.372927607e-10
4.573725378e-10
5.517301593e-10
6.787117046e-10
7.850472973e-10
8.979787877e-10
1.00878257e-09
1.134743245e-09
1.195077789e-09
1.254151009e-09
1.30805635e-09
1.405268048e-09
1.56455877e-09