/*--------------------------------*- C++ -*----------------------------------*\
  =========                 |
  \\      /  F ield         | OpenFOAM: The Open Source CFD Toolbox
   \\    /   O peration     | Website:  https://openfoam.org
    \\  /    A nd           | Version:  10
     \\/     M anipulation  |
\*---------------------------------------------------------------------------*/
FoamFile
{
    format      ascii;
    class       volScalarField;
    location    "0.02498436188";
    object      CO;
}
// * * * * * * * * * * * * * * * * * * * * * * * * * * * * * * * * * * * * * //

dimensions      [0 0 0 0 0 0 0];

internalField   nonuniform List<scalar> 
5170
(
2.624936886e-11
2.620484052e-11
2.590807548e-11
2.380620993e-11
1.803920885e-12
5.21132779e-11
5.197438511e-11
5.134373208e-11
4.812305431e-11
2.986171614e-11
7.77984287e-11
7.756774837e-11
7.664811534e-11
7.280373883e-11
5.767056631e-11
1.031810763e-10
1.028698609e-10
1.017367954e-10
9.765155419e-11
8.560954787e-11
1.282285273e-10
1.278512871e-10
1.265871996e-10
1.225666549e-10
1.135828975e-10
1.529393805e-10
1.525215509e-10
1.512114276e-10
1.475281639e-10
1.415689614e-10
1.773467133e-10
1.769091506e-10
1.75634174e-10
1.725555994e-10
1.695820429e-10
2.015094602e-10
2.010811208e-10
1.999159533e-10
1.976638019e-10
1.976532193e-10
2.254777065e-10
2.250836153e-10
2.241112975e-10
2.228931459e-10
2.258181839e-10
2.493025272e-10
2.48959894e-10
2.48237684e-10
2.482863412e-10
2.541146432e-10
2.730139192e-10
2.727402453e-10
2.723146448e-10
2.738658127e-10
2.825536948e-10
2.966165561e-10
2.964353589e-10
2.96406355e-10
2.996275206e-10
3.111095361e-10
3.201147231e-10
3.20050893e-10
3.205390443e-10
3.255698295e-10
3.397495446e-10
3.435114789e-10
3.435904543e-10
3.447034449e-10
3.516850661e-10
3.684378416e-10
3.66804472e-10
3.670563219e-10
3.688935886e-10
3.779504187e-10
3.97130283e-10
3.899845375e-10
3.904431617e-10
3.931390448e-10
4.043611081e-10
4.257488087e-10
4.130493448e-10
4.137531098e-10
4.174105348e-10
4.308608751e-10
4.543184214e-10
4.360089395e-10
4.370194628e-10
4.419184665e-10
4.584923404e-10
4.866221514e-10
4.615886005e-10
4.711957078e-10
5.40735846e-10
1.026378904e-09
2.712029613e-09
1.297499435e-09
5.040942197e-09
3.703913626e-08
2.596070259e-07
1.25912138e-06
0.002462883458
0.002459471497
0.002458405937
0.002457501228
0.002456503755
0.001559967435
0.001653718273
0.001652469454
0.001639285597
0.001500838172
0.001077926273
0.001193481932
0.001193328955
0.001150383414
0.0009968845232
0.0007984621881
0.0009113352168
0.0009146701781
0.0008539777875
0.0007224326929
0.0006232145347
0.0007248195368
0.0007286012914
0.0006689189407
0.0005470814286
0.0005225178292
0.0006017244255
0.0006092324813
0.0005500986892
0.0004529737557
0.0004388902743
0.0005197397723
0.0005273390185
0.0004790837036
0.0004131378299
0.0004044239429
0.0004505505358
0.0004580315806
0.0004343020704
0.0003840845652
0.000381425017
0.0004158283309
0.0004215075985
0.0003995271907
0.000356773305
0.0003602702168
0.0003932365297
0.0003955949122
0.0003740597057
0.0003450562152
0.0003465524552
0.0003715968214
0.0003727048348
0.0003532018896
0.00033498784
0.0003360704557
0.0003502527032
0.0003512106076
0.0003418253506
0.0003277433356
0.0003291932618
0.0003408467529
0.0003420893036
0.0003330261181
0.0003209583207
0.0003233156757
0.0003328991542
0.0003336095092
0.000326066212
0.0003145279313
0.0003175459864
0.0003265959936
0.0003269749909
0.000319193019
0.0003078350787
0.0003119332431
0.0003202902296
0.0003204025836
0.0003126843006
0.0003015497566
0.0003059121967
0.0003140498231
0.0003139000318
0.00030601858
0.0002948385825
0.0003002309153
0.0003077876163
0.0003072878255
0.0002993235017
0.0002881624214
0.0003080398388
0.0003044272729
0.0003009525252
0.0002924961037
0.0002806123455
0.001827161081
0.0005788807972
0.000341801409
0.0002926916008
0.0002756363112
3.14280483e-08
2.417106431e-07
3.725132352e-06
5.557896365e-05
0.0007446159588
1.787500255e-07
1.2162244e-06
1.506071141e-05
0.000161366837
0.001279404256
6.314835732e-07
3.905385201e-06
4.021365125e-05
0.0003330573393
0.001842851832
1.767290055e-06
1.004385457e-05
8.859621391e-05
0.0005942994638
0.002519218006
4.334533056e-06
2.273229197e-05
0.0001745301608
0.0009617478164
0.003285697215
9.94200063e-06
4.856171494e-05
0.0003197213332
0.001432247202
0.004094614323
2.160596749e-05
9.787269549e-05
0.0005429129268
0.00199388074
0.004933239333
4.446231132e-05
0.0001844143386
0.0008564964856
0.002634299138
0.005803127585
8.759720731e-05
0.0003276327432
0.001268581875
0.003338577411
0.00668832947
0.0001662186621
0.000550128223
0.001780778137
0.004100028487
0.007583257248
0.0003061549595
0.0008808666817
0.002394019696
0.00491176978
0.008480651015
0.0005576370497
0.001345038462
0.003099070969
0.00577387699
0.00939245055
0.0009935563466
0.001959018466
0.003898980106
0.006692349391
0.01033830505
0.001624950459
0.002717939585
0.004789192082
0.007662090818
0.01130766196
0.002524687345
0.003660442292
0.005792320913
0.008695619739
0.01230738106
0.003658645392
0.00478275922
0.00692159287
0.009813392453
0.01335775865
0.005067245722
0.00614917306
0.008242112796
0.01106742819
0.01449927056
0.006804509782
0.007804952679
0.009788945057
0.01249703104
0.01579257581
0.008740724422
0.009655480763
0.01151625853
0.01409628314
0.01725147619
0.01083664163
0.01166207586
0.01334520236
0.01565994991
0.01843788872
0.01293703943
0.01358650606
0.01488358801
0.01659309885
0.01851580467
0.01437071975
0.01471349379
0.01539176572
0.01625495926
0.01716143296
0.0140730369
0.01418605126
0.01439776726
0.01463913897
0.0148401269
0.01235622258
0.01235708753
0.01233912001
0.0122767275
0.01214402851
0.01003622963
0.009998611476
0.009904302916
0.009747925493
0.009526089515
0.007727372635
0.007685822464
0.007589025388
0.007437304676
0.00723259904
0.005873967097
0.005840037012
0.005760967795
0.00563880158
0.005477027775
0.004409228067
0.004383680378
0.004324563424
0.004233918578
0.004114898112
0.003281318989
0.00326302061
0.003220841027
0.003156377381
0.003072014143
0.002423814729
0.002411135839
0.002381939984
0.002337351353
0.002279041253
0.001777155258
0.001768596588
0.001748866834
0.001718704058
0.001679227783
0.001293190658
0.00128754292
0.001274483638
0.001254473394
0.001228240331
0.0009346352884
0.0009309845661
0.0009225055945
0.000909473048
0.0008923500547
0.000673250695
0.0006709357804
0.0006655298368
0.0006571909135
0.0006462080689
0.0004872837168
0.0004858369577
0.000482440584
0.0004771825993
0.0004702398047
0.0003590570558
0.0003581559145
0.0003560321394
0.0003527345217
0.0003483691805
0.0002736377338
0.0002730663849
0.0002717199041
0.0002696263292
0.00026684827
0.0002185581297
0.0002181791676
0.0002172911266
0.0002159119432
0.0002140783252
0.0001839231295
0.0001836533322
0.0001830285129
0.0001820619646
0.0001807753847
0.0001623764216
0.0001621681855
0.0001616930731
0.0001609623186
0.0001599891586
0.0001488008668
0.0001486282739
0.0001482399995
0.0001476462529
0.0001468555862
0.0001398582232
0.0001397078324
0.00013937306
0.0001388634368
0.0001381849342
0.0001335008042
0.0001333658212
0.0001330674066
0.0001326144631
0.000132011507
0.000128546339
0.0001284233534
0.0001281524731
0.0001277419829
0.0001271955383
0.000124350207
0.0001242373302
0.0001239891968
0.0001236134591
0.0001231132128
0.0001205799344
0.0001204759928
0.0001202476943
0.000119902078
0.0001194418393
0.0001170726903
0.000116976812
0.0001167662866
0.0001164475722
0.0001160230515
0.0001137516652
0.0001136631291
0.0001134687285
0.0001131743903
0.0001127822378
0.0001105824326
0.0001105006044
0.0001103209185
0.0001100488076
0.0001096861745
0.0001075488398
0.0001074731404
0.0001073068901
0.0001070550766
0.0001067194071
0.0001046420305
0.0001045719249
0.0001044179422
0.0001041846641
0.000103873627
0.0001018566559
0.0001017916634
0.0001016488924
0.0001014325668
0.0001011440716
9.918724037e-05
9.912692066e-05
9.89944e-05
9.879357116e-05
9.852568456e-05
9.662839162e-05
9.657234081e-05
9.644918621e-05
9.626252334e-05
9.601348339e-05
9.417464972e-05
9.41225016e-05
9.40079126e-05
9.383420831e-05
9.360241377e-05
9.182097817e-05
9.177239677e-05
9.166563683e-05
9.150378028e-05
9.128775798e-05
8.95628503e-05
8.95175253e-05
8.94179162e-05
8.926688411e-05
8.906527636e-05
8.739570667e-05
8.735335103e-05
8.726026382e-05
8.711910773e-05
8.69306565e-05
8.531391802e-05
8.527427142e-05
8.518713641e-05
8.505499606e-05
8.487855916e-05
8.330958346e-05
8.32724171e-05
8.319073066e-05
8.30668437e-05
8.290140679e-05
8.137279282e-05
8.133791183e-05
8.126124433e-05
8.114495947e-05
8.098965766e-05
7.949251309e-05
7.9459764e-05
7.938777432e-05
7.927857205e-05
7.913271207e-05
7.766081597e-05
7.763008474e-05
7.756252073e-05
7.746001906e-05
7.732309472e-05
7.587387068e-05
7.584503906e-05
7.578163802e-05
7.568543448e-05
7.555690309e-05
7.413360742e-05
7.410657484e-05
7.404711876e-05
7.395688701e-05
7.383631867e-05
7.244392748e-05
7.241857391e-05
7.236280188e-05
7.227815013e-05
7.216502505e-05
7.08149377e-05
7.07911456e-05
7.073880453e-05
7.065935243e-05
7.055316296e-05
6.924855644e-05
6.922616206e-05
6.917689606e-05
6.910211113e-05
6.900215618e-05
6.776954348e-05
6.774843284e-05
6.770199538e-05
6.763150458e-05
6.753728373e-05
6.650443249e-05
6.648435979e-05
6.644020535e-05
6.637317891e-05
6.628358393e-05
0.002713397798
0.00348031883
0.004203848896
0.005158615764
0.006167723132
0.007110430741
0.007997193709
0.008895083497
0.009787412854
0.01066259699
0.01151871577
0.01238543409
0.01329035252
0.01420074471
0.01512482222
0.01608433392
0.0171123142
0.01829746773
0.01965791738
0.02049477344
0.01983115227
0.01772860815
0.01492821176
0.01201848324
0.009353724137
0.007078079586
0.005357405364
0.004027585758
0.003010400377
0.002236608882
0.001650614358
0.001209322404
0.0008800829367
0.0006383995423
0.0004653385292
0.0003452983981
0.0002648861972
0.0002127635842
0.000179828775
0.0001592507853
0.0001462386319
0.0001376443714
0.0001315246879
0.0001267509324
0.0001227044973
0.0001190650033
0.0001156750772
0.0001124606037
0.0001093886425
0.0001064439206
0.0001036182935
0.0001009071888
9.830567102e-05
9.580890036e-05
9.341195307e-05
9.111021541e-05
8.88995412e-05
8.677569928e-05
8.473344673e-05
8.276531271e-05
8.086188706e-05
7.90127093e-05
7.721045696e-05
7.545118466e-05
7.373716627e-05
7.207200216e-05
7.04658355e-05
6.89199453e-05
6.745977087e-05
6.620986138e-05
0.006659039687
0.02381783533
0.003437145311
0.0005814157024
0.0001688479108
0.00793847336
0.02147941902
0.01478621896
0.002252633575
0.0004896038015
0.008814455507
0.02005843344
0.03103358411
0.00608982273
0.001532845163
0.01029597813
0.02350047058
0.04697741337
0.01231443547
0.003350144189
0.0116537878
0.02471486659
0.04364476384
0.01932424384
0.00511330104
0.01265759735
0.0244987847
0.03888348692
0.02829303347
0.007897902729
0.01344981201
0.02424637033
0.03697257952
0.03840253027
0.01253623412
0.01426396129
0.02460197922
0.03740916627
0.04833446784
0.018849508
0.01506333513
0.02497262406
0.03706418609
0.04850646074
0.02515122332
0.01581144643
0.02519199387
0.03627705117
0.04696027285
0.03187855279
0.01652150949
0.02542482398
0.03580851531
0.04623426037
0.03911101069
0.01725752934
0.02582707705
0.03585811707
0.04652202861
0.04699739053
0.01804353001
0.02631721349
0.03590729516
0.04615250128
0.05008764957
0.01881514509
0.02672437643
0.03571095951
0.04511704774
0.04989773238
0.01957868649
0.02709740016
0.03550114054
0.04424972382
0.04967622744
0.02036671838
0.02751583003
0.03544612992
0.04377740222
0.04995572481
0.02119563584
0.02796758288
0.03548266409
0.04350903249
0.05019141146
0.02218717595
0.02865535651
0.03585539905
0.04354914719
0.04968123535
0.0233830883
0.0296884703
0.03681730639
0.04445817151
0.04939171669
0.02364002368
0.02862757449
0.0338010858
0.03957721307
0.04684851214
0.02182920757
0.02438173404
0.02605207497
0.02644061521
0.02496870546
0.01862547826
0.01932312776
0.01909857661
0.01782971081
0.01555869879
0.01513634071
0.01490099352
0.01403452284
0.01260192927
0.01076175115
0.01191599137
0.01137585946
0.01046628399
0.0092744291
0.007924073441
0.009172265707
0.008636181455
0.007877660601
0.006970898271
0.005995706298
0.006906574636
0.00647143346
0.005899164214
0.00524340192
0.004555314482
0.00522346783
0.004897680315
0.004480389095
0.004009649765
0.003519443907
0.003929891462
0.003695464174
0.003397675479
0.003063046899
0.002714459544
0.002942023816
0.002777431641
0.002568016188
0.002332093011
0.002085217024
0.002190238852
0.002076960576
0.001931657232
0.001766875458
0.001593215542
0.001620077005
0.001543573179
0.001444135328
0.001330284322
0.001209225509
0.001189798606
0.001139087653
0.001072007134
0.0009942990118
0.0009108366334
0.0008679715639
0.0008349843301
0.000790416668
0.0007381063541
0.0006813245024
0.0006310909075
0.0006100144603
0.0005808668062
0.0005461817424
0.0005081269884
0.0004609949115
0.0004477012542
0.0004288928499
0.0004062110493
0.0003810643714
0.0003426786906
0.0003342927603
0.0003222190779
0.0003074944031
0.0002910112439
0.0002632027843
0.0002577915973
0.0002499582419
0.0002403394816
0.0002294856653
0.0002115553032
0.0002078817084
0.0002026299589
0.0001961808278
0.0001888654241
0.0001788500177
0.0001761655993
0.00017244407
0.0001679082391
0.0001627538606
0.0001583848235
0.0001562619347
0.0001534361408
0.0001500364821
0.0001461782206
0.0001454376931
0.0001436449483
0.0001413496471
0.0001386271459
0.0001355466324
0.0001368929713
0.0001353109438
0.0001333445864
0.0001310395409
0.0001284391764
0.0001308198224
0.0001293887803
0.0001276435564
0.000125613705
0.000123328474
0.0001260926377
0.0001247821008
0.0001232007657
0.0001213694736
0.0001193096792
0.0001220924147
0.0001208855128
0.0001194367651
0.0001177621792
0.0001158786725
0.0001184976287
0.0001173834251
0.0001160486519
0.0001145064246
0.0001127708673
0.0001151499587
0.0001141200143
0.0001128866422
0.0001114611184
0.0001098556337
0.0001119748425
0.0001110220496
0.0001098806746
0.0001085604988
0.0001070722267
0.0001089392014
0.0001080571025
0.0001069996666
0.000105775521
0.0001043941161
0.000106027795
0.0001052104336
0.0001042298102
0.0001030935723
0.0001018101609
0.0001032326449
0.0001024745572
0.0001015643616
0.0001005088679
9.931556808e-05
0.0001005494308
9.984564772e-05
9.900004306e-05
9.801867253e-05
9.690820389e-05
9.797339597e-05
9.731931617e-05
9.65329108e-05
9.561956977e-05
9.458523151e-05
9.549992261e-05
9.489135118e-05
9.415922066e-05
9.33083294e-05
9.23439711e-05
9.31242879e-05
9.255740271e-05
9.187504239e-05
9.108148607e-05
9.018145544e-05
9.084203605e-05
9.031331547e-05
8.967657986e-05
8.893564537e-05
8.809473154e-05
8.864915779e-05
8.815535378e-05
8.756042122e-05
8.686776774e-05
8.608116665e-05
8.65415463e-05
8.607964397e-05
8.552296186e-05
8.487454651e-05
8.413777793e-05
8.451411448e-05
8.408137834e-05
8.355970469e-05
8.295182476e-05
8.226076227e-05
8.25595744e-05
8.215357158e-05
8.166398875e-05
8.109326427e-05
8.04441327e-05
8.066874059e-05
8.02874411e-05
7.982747101e-05
7.929104942e-05
7.86806593e-05
7.883137407e-05
7.84731537e-05
7.804079545e-05
7.753634352e-05
7.696206583e-05
7.704036945e-05
7.670401038e-05
7.629772242e-05
7.582336825e-05
7.528303505e-05
7.529169387e-05
7.497592494e-05
7.459418521e-05
7.414822405e-05
7.363995887e-05
7.358771309e-05
7.329148015e-05
7.293306159e-05
7.251408252e-05
7.203630782e-05
7.193187888e-05
7.165387963e-05
7.131729411e-05
7.092363017e-05
7.047447453e-05
7.033431133e-05
7.00732515e-05
6.975704425e-05
6.938700577e-05
6.896460523e-05
6.879610136e-05
6.855027015e-05
6.825247029e-05
6.790391936e-05
6.750594981e-05
6.734293648e-05
6.711112597e-05
6.683033106e-05
6.650166726e-05
6.612633723e-05
6.609870221e-05
6.58781676e-05
6.561105519e-05
6.529839584e-05
6.494130204e-05
2.051582817e-05
2.724762051e-06
4.746983415e-07
1.331373257e-07
5.782277063e-08
3.12254757e-08
1.922467344e-08
1.354664857e-08
1.091009913e-08
9.729467007e-09
9.219178684e-09
9.003237077e-09
8.911948641e-09
8.87253917e-09
8.855310083e-09
8.849580935e-09
8.845027217e-09
8.839640535e-09
8.837490681e-09
8.836247475e-09
8.835061056e-09
8.833850529e-09
8.832655225e-09
8.83151115e-09
8.830441299e-09
8.829463208e-09
8.828566358e-09
8.827733426e-09
8.826968084e-09
8.826277114e-09
8.825641101e-09
8.825041682e-09
8.824476717e-09
8.823949252e-09
8.82347525e-09
8.823048128e-09
8.822661394e-09
8.822306539e-09
8.821985445e-09
8.821691689e-09
8.821422286e-09
8.82117551e-09
8.820940816e-09
8.820708358e-09
8.820497611e-09
8.820340233e-09
8.820218474e-09
8.820122599e-09
8.820039098e-09
8.819973523e-09
8.819918975e-09
8.81988067e-09
8.819846062e-09
8.819811597e-09
8.819497036e-09
8.81679155e-09
8.798941445e-09
8.714160718e-09
8.412771636e-09
8.01991597e-09
9.76590259e-05
1.466087977e-05
1.959072757e-06
4.067501059e-07
1.481701334e-07
7.53005362e-08
4.610231159e-08
3.229174095e-08
2.54443459e-08
2.206904207e-08
2.044235346e-08
1.967364774e-08
1.931348861e-08
1.914338853e-08
1.906169255e-08
1.902375014e-08
1.900323595e-08
1.899002091e-08
1.898463918e-08
1.898148373e-08
1.897855589e-08
1.897552882e-08
1.897253543e-08
1.896970102e-08
1.896718758e-08
1.896495171e-08
1.896285053e-08
1.896093046e-08
1.895934881e-08
1.895801379e-08
1.895677998e-08
1.895558677e-08
1.895451e-08
1.895368166e-08
1.895309206e-08
1.895258476e-08
1.895214732e-08
1.895170201e-08
1.895141675e-08
1.895107831e-08
1.895095514e-08
1.895097197e-08
1.895087644e-08
1.895083097e-08
1.895069323e-08
1.895071665e-08
1.89507349e-08
1.895093597e-08
1.89511498e-08
1.895136608e-08
1.895155707e-08
1.89518349e-08
1.895200876e-08
1.89523341e-08
1.895200544e-08
1.894891532e-08
1.893356321e-08
1.888442907e-08
1.880907946e-08
1.879177094e-08
0.0003583129566
4.994080716e-05
4.657731427e-06
7.17186857e-07
2.232887737e-07
1.084999104e-07
6.719269401e-08
4.817440957e-08
3.829754581e-08
3.30148407e-08
3.019889712e-08
2.871831016e-08
2.795029907e-08
2.755378472e-08
2.734770657e-08
2.724010898e-08
2.718646026e-08
2.71630769e-08
2.715380572e-08
2.714872783e-08
2.714399997e-08
2.713890899e-08
2.713377037e-08
2.712894567e-08
2.712462495e-08
2.712077676e-08
2.711738454e-08
2.711439974e-08
2.711178172e-08
2.710954539e-08
2.710763358e-08
2.710599363e-08
2.710471705e-08
2.710376238e-08
2.7103012e-08
2.710249143e-08
2.710221176e-08
2.710198002e-08
2.710183868e-08
2.7101687e-08
2.710180017e-08
2.710203132e-08
2.71023193e-08
2.710278943e-08
2.710324391e-08
2.710386466e-08
2.710442322e-08
2.710520945e-08
2.710592388e-08
2.7106776e-08
2.710757254e-08
2.710858672e-08
2.710936944e-08
2.711050625e-08
2.711111326e-08
2.711161874e-08
2.711283396e-08
2.713300888e-08
2.725315228e-08
2.742997347e-08
0.001160433233
0.0002643273069
2.715966186e-05
2.141227928e-06
3.894151752e-07
1.504532871e-07
8.691104984e-08
6.109172995e-08
4.817551653e-08
4.117082531e-08
3.725169025e-08
3.504448005e-08
3.380745285e-08
3.311914373e-08
3.27380361e-08
3.252784349e-08
3.242516644e-08
3.23883494e-08
3.237596035e-08
3.237156405e-08
3.236841887e-08
3.236490474e-08
3.236116639e-08
3.23576126e-08
3.235449768e-08
3.235180327e-08
3.234952062e-08
3.234763115e-08
3.234607289e-08
3.234484882e-08
3.234392517e-08
3.234326119e-08
3.23429102e-08
3.23428283e-08
3.234294148e-08
3.234330262e-08
3.234387613e-08
3.234448989e-08
3.234514474e-08
3.234583296e-08
3.234667266e-08
3.234757411e-08
3.234856742e-08
3.234970044e-08
3.235087178e-08
3.235216247e-08
3.235341739e-08
3.235479401e-08
3.235608521e-08
3.235754473e-08
3.235896211e-08
3.236056366e-08
3.236195558e-08
3.236376344e-08
3.236559341e-08
3.236994948e-08
3.238379071e-08
3.243862226e-08
3.260421053e-08
3.278948269e-08
0.002133325676
0.0007098978664
0.0001446383824
1.372594683e-05
1.47650588e-06
3.415977986e-07
1.431821016e-07
8.387180608e-08
5.966678917e-08
4.817126982e-08
4.225160141e-08
3.905198882e-08
3.727247796e-08
3.626032992e-08
3.567940606e-08
3.534718871e-08
3.51817989e-08
3.512235804e-08
3.510284729e-08
3.509851451e-08
3.509832968e-08
3.509866642e-08
3.5098848e-08
3.509899091e-08
3.509924292e-08
3.509963355e-08
3.510017089e-08
3.510084891e-08
3.510164901e-08
3.510257599e-08
3.510361048e-08
3.510474217e-08
3.51059999e-08
3.510736966e-08
3.510881486e-08
3.51103694e-08
3.51120044e-08
3.511362671e-08
3.511522663e-08
3.511682969e-08
3.51184736e-08
3.51201049e-08
3.512176303e-08
3.51234671e-08
3.512517648e-08
3.512692828e-08
3.512865545e-08
3.513040259e-08
3.513208172e-08
3.513385627e-08
3.513559922e-08
3.513744502e-08
3.513917072e-08
3.514124649e-08
3.514380028e-08
3.51496578e-08
3.516622246e-08
3.52178575e-08
3.534063444e-08
3.546077948e-08
0.003110450797
0.001392222186
0.0004630677313
8.64805449e-05
8.367475636e-06
1.180840194e-06
3.233073334e-07
1.39518336e-07
8.049953e-08
5.710278531e-08
4.674790331e-08
4.18072914e-08
3.928363139e-08
3.791060557e-08
3.712750275e-08
3.667200932e-08
3.643551738e-08
3.634038208e-08
3.630407434e-08
3.629411927e-08
3.629403304e-08
3.629696533e-08
3.630057183e-08
3.630420104e-08
3.630768233e-08
3.631100119e-08
3.631418212e-08
3.631723899e-08
3.632018121e-08
3.632303337e-08
3.632579431e-08
3.632847531e-08
3.633110103e-08
3.633367867e-08
3.63361969e-08
3.633867934e-08
3.634111799e-08
3.634348447e-08
3.634577833e-08
3.634802029e-08
3.635022446e-08
3.635236376e-08
3.635446299e-08
3.635652501e-08
3.635853491e-08
3.636051947e-08
3.636246846e-08
3.636439081e-08
3.636624626e-08
3.63681025e-08
3.636991015e-08
3.63717505e-08
3.63735399e-08
3.637560262e-08
3.637832035e-08
3.638389299e-08
3.639760485e-08
3.643288127e-08
3.650243893e-08
3.656365341e-08
0.003917608167
0.002012990716
0.0009319040712
0.0003118441435
5.014381605e-05
5.051500055e-06
8.838300538e-07
2.755523021e-07
1.24274351e-07
7.302419643e-08
5.305513858e-08
4.463319133e-08
4.080928158e-08
3.891454489e-08
3.788905539e-08
3.729782274e-08
3.697940858e-08
3.683526751e-08
3.677087407e-08
3.674713446e-08
3.674198156e-08
3.674444953e-08
3.674965074e-08
3.675555223e-08
3.676135761e-08
3.676682107e-08
3.67719103e-08
3.67766548e-08
3.678109535e-08
3.678526707e-08
3.678919504e-08
3.67929087e-08
3.67964352e-08
3.679979616e-08
3.68030022e-08
3.680607282e-08
3.680901667e-08
3.681183509e-08
3.681453623e-08
3.681713481e-08
3.681964063e-08
3.682204841e-08
3.682437275e-08
3.682661664e-08
3.682877674e-08
3.683086596e-08
3.683288751e-08
3.683485346e-08
3.683675182e-08
3.68386027e-08
3.684039243e-08
3.68421712e-08
3.684393747e-08
3.684594009e-08
3.684862837e-08
3.685357353e-08
3.686400077e-08
3.688597951e-08
3.692208834e-08
3.695032856e-08
0.005043606148
0.002548611862
0.00144708856
0.000699456291
0.0002113541695
2.576044659e-05
2.929296208e-06
6.335852375e-07
2.192515048e-07
1.038591135e-07
6.396173571e-08
4.876987962e-08
4.25751276e-08
3.981508001e-08
3.843765472e-08
3.767496592e-08
3.725888603e-08
3.705423706e-08
3.69518943e-08
3.690621226e-08
3.689004767e-08
3.688819677e-08
3.689266796e-08
3.689946072e-08
3.690670216e-08
3.69136391e-08
3.692006015e-08
3.692596596e-08
3.693141511e-08
3.693646398e-08
3.694115827e-08
3.694553951e-08
3.694964378e-08
3.695350373e-08
3.695714368e-08
3.696058729e-08
3.696385242e-08
3.696695273e-08
3.696990205e-08
3.697271404e-08
3.697539947e-08
3.697796344e-08
3.698041704e-08
3.698276794e-08
3.698502065e-08
3.698718189e-08
3.698925377e-08
3.699124626e-08
3.699316183e-08
3.699501085e-08
3.699679782e-08
3.699855978e-08
3.700034101e-08
3.700236898e-08
3.700511451e-08
3.700978325e-08
3.701835142e-08
3.703336129e-08
3.705405418e-08
3.706779452e-08
0.006958430483
0.002981324435
0.001867880122
0.001123709587
0.0005424441165
0.0001190168381
1.150941809e-05
1.660824571e-06
4.342410777e-07
1.643779073e-07
8.325831969e-08
5.537528227e-08
4.50713579e-08
4.092044798e-08
3.902126955e-08
3.802407929e-08
3.748118994e-08
3.719965555e-08
3.704861003e-08
3.697294128e-08
3.693964865e-08
3.692919478e-08
3.693025681e-08
3.693643673e-08
3.694431792e-08
3.695228579e-08
3.695973828e-08
3.696655465e-08
3.697278368e-08
3.697850182e-08
3.698377533e-08
3.698865769e-08
3.69931948e-08
3.699742831e-08
3.700139203e-08
3.700511618e-08
3.700862498e-08
3.701193882e-08
3.701507532e-08
3.701805013e-08
3.702087645e-08
3.702356446e-08
3.702612523e-08
3.702856801e-08
3.70309009e-08
3.70331317e-08
3.703526498e-08
3.703730764e-08
3.70392647e-08
3.704114536e-08
3.704296356e-08
3.704475961e-08
3.70466109e-08
3.70487553e-08
3.705169678e-08
3.70564592e-08
3.706439694e-08
3.707661451e-08
3.709134674e-08
3.70992845e-08
0.01007944925
0.003497741077
0.002235238303
0.001492022496
0.0008902078327
0.0003425302076
4.607293929e-05
4.545747447e-06
8.777248061e-07
2.689787806e-07
1.133185297e-07
6.495523109e-08
4.850230515e-08
4.237941348e-08
3.976557091e-08
3.845260387e-08
3.774015909e-08
3.735678166e-08
3.714141831e-08
3.702537278e-08
3.696772019e-08
3.694364257e-08
3.693802583e-08
3.694168843e-08
3.694924423e-08
3.695782077e-08
3.696613509e-08
3.697377868e-08
3.69807236e-08
3.698705124e-08
3.699284836e-08
3.69981833e-08
3.70031124e-08
3.700768483e-08
3.701194292e-08
3.70159232e-08
3.701965606e-08
3.702316686e-08
3.702647712e-08
3.702960537e-08
3.703256753e-08
3.703537707e-08
3.703804636e-08
3.704058607e-08
3.70430054e-08
3.704531295e-08
3.704751569e-08
3.704962141e-08
3.705163706e-08
3.705357266e-08
3.705544685e-08
3.705730919e-08
3.705926602e-08
3.706158763e-08
3.706481512e-08
3.706987297e-08
3.707779869e-08
3.708907466e-08
3.710155931e-08
3.71068838e-08
0.01443279914
0.00443708903
0.002574478912
0.001861135948
0.001243881965
0.0006356799027
0.0001355239213
1.294437886e-05
1.807072391e-06
4.397752637e-07
1.55074006e-07
7.70367248e-08
5.267197118e-08
4.417765371e-08
4.071272192e-08
3.901078292e-08
3.808112461e-08
3.756436276e-08
3.726371755e-08
3.709334728e-08
3.700196136e-08
3.695792442e-08
3.694144208e-08
3.694001464e-08
3.694585459e-08
3.695441871e-08
3.696338907e-08
3.697182618e-08
3.697949821e-08
3.698644629e-08
3.699277112e-08
3.699856041e-08
3.700388328e-08
3.700879673e-08
3.701335062e-08
3.701758804e-08
3.702154557e-08
3.70252537e-08
3.702873816e-08
3.703202084e-08
3.703512039e-08
3.703805287e-08
3.704083221e-08
3.704347076e-08
3.704597892e-08
3.704836663e-08
3.705064208e-08
3.705281411e-08
3.705489211e-08
3.705688975e-08
3.705883181e-08
3.706078053e-08
3.706286985e-08
3.70654075e-08
3.706896193e-08
3.707438401e-08
3.708250352e-08
3.709345199e-08
3.710488239e-08
3.710857256e-08
0.01994657196
0.006026171778
0.002917714547
0.002249955947
0.001606365486
0.0009399906217
0.0003018135105
3.504092791e-05
4.035089405e-06
7.467346959e-07
2.139030796e-07
9.155697469e-08
5.74000329e-08
4.627373896e-08
4.187241201e-08
3.971955682e-08
3.852588592e-08
3.784177774e-08
3.743169022e-08
3.719028982e-08
3.705372203e-08
3.698192699e-08
3.694933723e-08
3.693943633e-08
3.694156879e-08
3.694911713e-08
3.69583508e-08
3.696749324e-08
3.697591311e-08
3.698351906e-08
3.699039913e-08
3.699666127e-08
3.700239203e-08
3.700765878e-08
3.701251866e-08
3.701702137e-08
3.702120971e-08
3.702511987e-08
3.702878208e-08
3.703222199e-08
3.703546119e-08
3.703851816e-08
3.704140873e-08
3.704414692e-08
3.704674465e-08
3.704921354e-08
3.705156292e-08
3.705380302e-08
3.705594531e-08
3.705800781e-08
3.706002401e-08
3.706207245e-08
3.706431621e-08
3.706709607e-08
3.707098821e-08
3.707677308e-08
3.708510956e-08
3.709587308e-08
3.710658299e-08
3.710888064e-08
0.02568968407
0.008357089549
0.00343926771
0.002722182289
0.002037506495
0.001274732545
0.0005108368427
8.538513591e-05
8.528427475e-06
1.267349055e-06
2.89428851e-07
1.067387763e-07
6.216291629e-08
4.854908128e-08
4.321790022e-08
4.057296331e-08
3.907529627e-08
3.819331119e-08
3.765115144e-08
3.732196014e-08
3.712823279e-08
3.702022048e-08
3.69656302e-08
3.69432458e-08
3.693909654e-08
3.694415254e-08
3.695294462e-08
3.696254599e-08
3.697168042e-08
3.697997614e-08
3.698744588e-08
3.699420429e-08
3.70003591e-08
3.70059925e-08
3.701116993e-08
3.701594774e-08
3.702037476e-08
3.702449303e-08
3.702833756e-08
3.703193803e-08
3.703531921e-08
3.703850213e-08
3.704150479e-08
3.70443431e-08
3.704703085e-08
3.70495811e-08
3.705200454e-08
3.705431311e-08
3.705652079e-08
3.705865141e-08
3.706074903e-08
3.706290943e-08
3.706532436e-08
3.706836138e-08
3.70725867e-08
3.707870522e-08
3.708722035e-08
3.709779937e-08
3.710787165e-08
3.710874323e-08
0.03136665093
0.0114709554
0.004295321878
0.003219953314
0.0025489891
0.001649840074
0.0007507228188
0.000176455763
1.763701232e-05
2.216789145e-06
4.02727907e-07
1.258271097e-07
6.767486948e-08
5.116633481e-08
4.4777358e-08
4.15690235e-08
3.972353548e-08
3.861498442e-08
3.792041946e-08
3.74886096e-08
3.722679679e-08
3.707462658e-08
3.699227403e-08
3.695327631e-08
3.693997222e-08
3.694068065e-08
3.694798324e-08
3.695756304e-08
3.696725819e-08
3.697623158e-08
3.698431616e-08
3.699159348e-08
3.699818689e-08
3.700419722e-08
3.700970105e-08
3.701476157e-08
3.70194336e-08
3.702376476e-08
3.702779512e-08
3.703155849e-08
3.703508305e-08
3.703839275e-08
3.704150802e-08
3.704444684e-08
3.704722479e-08
3.70498562e-08
3.70523535e-08
3.705473071e-08
3.705700524e-08
3.705920826e-08
3.706139583e-08
3.706368113e-08
3.706628175e-08
3.706958323e-08
3.707413035e-08
3.708054646e-08
3.708918976e-08
3.7099556e-08
3.710900599e-08
3.710835124e-08
0.03721398588
0.01538260076
0.005661857297
0.003797802894
0.003139297511
0.002014314056
0.0009576012408
0.0002947248841
3.589700778e-05
4.191209236e-06
5.854266199e-07
1.494027751e-07
7.40246292e-08
5.423992798e-08
4.660435754e-08
4.27233779e-08
4.047177869e-08
3.910313038e-08
3.823565403e-08
3.768758917e-08
3.734821231e-08
3.714496394e-08
3.70297997e-08
3.697046065e-08
3.694523504e-08
3.693961333e-08
3.694413156e-08
3.695296425e-08
3.696289425e-08
3.697244283e-08
3.69811315e-08
3.698893856e-08
3.699597963e-08
3.700237248e-08
3.700820741e-08
3.701355519e-08
3.701847613e-08
3.702302291e-08
3.702724081e-08
3.703116794e-08
3.703483616e-08
3.703827264e-08
3.704150036e-08
3.704453934e-08
3.704740689e-08
3.705011879e-08
3.705268963e-08
3.705513622e-08
3.705748029e-08
3.705976151e-08
3.706204902e-08
3.706447327e-08
3.706727286e-08
3.707084078e-08
3.70756933e-08
3.708236974e-08
3.709109292e-08
3.710122015e-08
3.711006213e-08
3.710792992e-08
0.04321619129
0.01992502027
0.007503625957
0.004658390939
0.003807145724
0.002296332237
0.001076276155
0.0003857478347
6.523090201e-05
8.143052963e-06
9.202415228e-07