/*--------------------------------*- C++ -*----------------------------------*\
  =========                 |
  \\      /  F ield         | OpenFOAM: The Open Source CFD Toolbox
   \\    /   O peration     | Website:  https://openfoam.org
    \\  /    A nd           | Version:  10
     \\/     M anipulation  |
\*---------------------------------------------------------------------------*/
FoamFile
{
    format      ascii;
    class       volScalarField;
    location    "0.02498436188";
    object      CO2;
}
// * * * * * * * * * * * * * * * * * * * * * * * * * * * * * * * * * * * * * //

dimensions      [0 0 0 0 0 0 0];

internalField   nonuniform List<scalar> 
5170
(
3.024331664e-12
3.019226465e-12
2.98513989e-12
2.743559337e-12
2.073566338e-13
5.997131817e-12
5.981208521e-12
5.908767595e-12
5.538753233e-12
3.439670731e-12
8.948758151e-12
8.922300713e-12
8.816673591e-12
8.374938146e-12
6.636048154e-12
1.186543632e-11
1.182974669e-11
1.169964675e-11
1.123029613e-11
9.846560973e-12
1.474290149e-11
1.469966079e-11
1.455458163e-11
1.409281272e-11
1.306067791e-11
1.758083559e-11
1.75329725e-11
1.738268185e-11
1.695981325e-11
1.627540787e-11
2.038311682e-11
2.033302373e-11
2.018683671e-11
1.983354076e-11
1.949224237e-11
2.315669733e-11
2.310769594e-11
2.297416923e-11
2.271584171e-11
2.271486557e-11
2.590750406e-11
2.586245905e-11
2.575110559e-11
2.561152463e-11
2.594759705e-11
2.864158322e-11
2.860245939e-11
2.851982917e-11
2.852568063e-11
2.919502137e-11
3.136255818e-11
3.133135442e-11
3.128277224e-11
3.146108799e-11
3.245868e-11
3.40711556e-11
3.405055889e-11
3.404748506e-11
3.441748604e-11
3.573585845e-11
3.67680086e-11
3.676086534e-11
3.681712235e-11
3.739484482e-11
3.902296812e-11
3.945353875e-11
3.946276298e-11
3.959069631e-11
4.039233294e-11
4.231586977e-11
4.212741833e-11
4.215645864e-11
4.236746689e-11
4.340721332e-11
4.560923586e-11
4.478841258e-11
4.484115791e-11
4.515061874e-11
4.643863829e-11
4.889369998e-11
4.743609435e-11
4.751720651e-11
4.793859189e-11
4.94952644e-11
5.223199643e-11
5.01373428e-11
5.039901543e-11
5.1985942e-11
6.160420587e-11
9.014625086e-11
7.713299974e-11
1.509254512e-10
7.163920901e-10
4.878394952e-09
1.96307832e-08
7.319761769e-09
4.060632455e-08
3.250195424e-07
2.302394923e-06
1.118195158e-05
0.1123756244
0.1123691439
0.1123694418
0.112362445
0.1123588162
0.1138410832
0.113672901
0.113675138
0.1136843968
0.1139007956
0.1146063053
0.1144123083
0.1144145758
0.1144730542
0.1147141178
0.115035349
0.1148559188
0.1148531738
0.1149423914
0.1151459815
0.1153006164
0.1151438002
0.1151399515
0.115229133
0.1154151103
0.1154539072
0.1153323091
0.115322001
0.115412272
0.1155639063
0.1155866216
0.1154590872
0.1154487197
0.1155296555
0.1156585772
0.1156640752
0.1155731554
0.115561372
0.1156150796
0.115746061
0.1157388251
0.1156466489
0.1156363093
0.1157015812
0.1158214223
0.1158069917
0.1157222128
0.1157106652
0.1157738481
0.1158684482
0.1158555059
0.1157869972
0.1157763501
0.1158328851
0.115904553
0.115891333
0.1158414947
0.1158340143
0.1158749395
0.1159350909
0.1159204989
0.115876515
0.1158712419
0.1159107042
0.1159637051
0.1159477431
0.1159084796
0.1159055317
0.1159407426
0.1159895067
0.1159733565
0.1159363077
0.1159346358
0.1159680378
0.1160129424
0.1159965825
0.1159625045
0.1159616666
0.1159927755
0.1160334539
0.1160179067
0.115987174
0.1159870903
0.1160158177
0.1160525691
0.116036263
0.1160099775
0.1160108313
0.1160368357
0.1160691335
0.1160516665
0.1160307079
0.1160320147
0.1160530596
0.1160784688
0.1161519547
0.1160815056
0.1159688931
0.1158443105
0.1155676684
2.747512412e-07
2.141551945e-06
3.305376243e-05
0.0004931081109
0.006612754805
1.501102698e-06
1.013562483e-05
0.0001237521046
0.001295949793
0.009841077104
4.994234835e-06
3.024057019e-05
0.0003020221093
0.00238577764
0.01214993192
1.299191227e-05
7.124497251e-05
0.0005974002532
0.003710652495
0.01388710651
2.922284758e-05
0.000145638383
0.001041228888
0.005174725166
0.0151950643
6.07155868e-05
0.0002778073017
0.001676799687
0.006668036741
0.01627985506
0.0001188828143
0.0004990183638
0.002512599412
0.00813826816
0.01732931865
0.0002203656193
0.0008412575929
0.003527029898
0.009569155844
0.01837942628
0.0003914548497
0.001343574074
0.004690530679
0.01094970598
0.01939813836
0.0006716141913
0.002040889917
0.005969604779
0.01230237531
0.02041041167
0.001122321974
0.002975104864
0.007347496969
0.01364753248
0.02143180303
0.001859178759
0.004167261369
0.00879846278
0.01501052646
0.02248093301
0.003028968209
0.005615033534
0.01033623089
0.01641579322
0.02358396107
0.0045864554
0.007277317008
0.01196224373
0.01786708319
0.02473257437
0.006632675998
0.00921273875
0.01372458653
0.0193973182
0.02595242494
0.009023169238
0.01139326532
0.01565618142
0.02105793609
0.02728803726
0.01179016119
0.01391976046
0.01786894972
0.02293674848
0.02880018144
0.01499926994
0.01685098451
0.02041469493
0.02509767589
0.03058540003
0.01840693508
0.02001576475
0.02322071088
0.02753994125
0.03266645385
0.02199531922
0.02339515573
0.02621083385
0.03000826451
0.03446966924
0.02559394643
0.02667548873
0.02881897656
0.03161212289
0.0347153074
0.02816154787
0.02872902795
0.02984831642
0.03126457322
0.03274179861
0.02788599666
0.02807045515
0.02841527349
0.0288044593
0.02912042989
0.02516684569
0.02516099755
0.02511570144
0.0249878347
0.02473280402
0.02130326333
0.02122968344
0.0210490075
0.02075253623
0.02033402003
0.01735179922
0.01727031274
0.01708212305
0.01678838161
0.01639227641
0.01410949852
0.01404074978
0.01388224623
0.01363827401
0.01331506602
0.01151718473
0.01146333978
0.01134016781
0.01115202338
0.01090472652
0.009510440259
0.009469853406
0.009377533904
0.009237050327
0.009052927215
0.0079829854
0.007952882768
0.007884690781
0.007781102595
0.007645377472
0.006830966172
0.006808680366
0.006758366162
0.006681980283
0.006581776159
0.005965413307
0.005948737391
0.00591120474
0.00585422699
0.005779332828
0.005313871368
0.005301119979
0.005272515571
0.005229091042
0.005171880572
0.004819848898
0.004809812536
0.004787378199
0.004753327045
0.004708367646
0.00444094208
0.004432787854
0.004414628899
0.004387079483
0.004350636591
0.004145889513
0.004139059652
0.00412390388
0.004100925729
0.004070485403
0.003911569689
0.003905695516
0.003892702136
0.003873016674
0.003846909911
0.003720776373
0.003715617554
0.00370423586
0.003687003439
0.003664131817
0.003560802256
0.003556201958
0.003546072358
0.003530743296
0.003510385764
0.003422505012
0.003418360024
0.003409245109
0.003395455773
0.003377134239
0.003299543642
0.00329578338
0.003287521565
0.003275024461
0.003258412882
0.003187694568
0.003184268318
0.003176743876
0.00316536205
0.003150227067
0.003084234422
0.003081103103
0.003074228003
0.003063827326
0.003049991909
0.002987438993
0.002984570901
0.002978274105
0.002968746751
0.0029560686
0.002896207471
0.00289357561
0.002887797384
0.00287905299
0.002867412814
0.002809810718
0.002807391711
0.002802080391
0.002794040962
0.002783335811
0.00272773641
0.002725509656
0.002720620027
0.002713217384
0.002703357201
0.002649601201
0.002647548494
0.002643040551
0.002636214418
0.002627119574
0.002575098825
0.002573203949
0.002569042192
0.002562739068
0.002554338825
0.002503969124
0.00250221764
0.00249837037
0.002492542494
0.002484773683
0.002435975743
0.00243435459
0.002430793377
0.002425397952
0.002418203961
0.002370945868
0.002369443589
0.002366143051
0.002361141708
0.002354471684
0.002308673015
0.002307279088
0.002304216313
0.002299574536
0.002293382761
0.002248987868
0.002247692937
0.002244847397
0.002240534222
0.002234779662
0.002191735044
0.002190530699
0.002187883989
0.002183871636
0.002178517447
0.002136772964
0.002135651638
0.002133187147
0.00212945055
0.002124463481
0.002083973126
0.002082927984
0.002080630755
0.002077147324
0.00207249739
0.002033216856
0.002032241703
0.002030098139
0.002026847345
0.002022507291
0.001984395169
0.001983484409
0.001981482255
0.001978445584
0.001974390815
0.001937402966
0.001936551486
0.001934679519
0.001931840011
0.001928047995
0.001892145442
0.001891348646
0.001889596795
0.001886939229
0.001883389733
0.001848525367
0.001847778989
0.001846137883
0.001843648091
0.001840322274
0.001806465908
0.00180576615
0.001804227472
0.001801892876
0.001798774012
0.001765876555
0.001765219833
0.0017637757
0.001761584375
0.001758656594
0.001726707577
0.001726090825
0.001724734525
0.001722676322
0.001719926123
0.001688851354
0.001688271552
0.001686996436
0.001685061282
0.001682475248
0.001652311546
0.001651766273
0.001650567055
0.001648746968
0.001646314487
0.001616975035
0.001616461545
0.001615332161
0.00161361795
0.001611326786
0.001583394723
0.001582910921
0.001581846842
0.001580231688
0.001578072756
0.001554549978
0.001554090303
0.00155307921
0.001551544368
0.001549492603
0.02421156533
0.02432397894
0.02432111358
0.02432165497
0.02436203643
0.02455938512
0.02495476453
0.02547220436
0.02602613212
0.02664219429
0.02732484508
0.02806964961
0.02889884674
0.02978054281
0.03074715799
0.03183205961
0.03307509215
0.03461583221
0.0364647135
0.03770220822
0.03681088972
0.03365628153
0.02924695286
0.02449126662
0.02000424749
0.01608885679
0.01307182269
0.01071942758
0.008914845122
0.007543188062
0.006505853098
0.005722120927
0.005127761363
0.004673343344
0.004321959755
0.004046307496
0.003826006188
0.003645698634
0.003493896943
0.003362240657
0.003244874799
0.003137870468
0.003038682224
0.002945695581
0.002857882541
0.002774566318
0.002695276216
0.002619662892
0.002547449203
0.002478399903
0.002412300008
0.002348996314
0.002288298726
0.002230053545
0.002174119218
0.002120366019
0.002068676219
0.002018940151
0.001971057611
0.001924930308
0.001880471018
0.001837587123
0.001796208738
0.001756248202
0.001717663554
0.001680347515
0.001644312905
0.001609441352
0.001576295965
0.001547803816
0.05975214836
0.1082780455
0.11280604
0.1031398644
0.07617182766
0.0501565961
0.08678375983
0.1131409985
0.09704195937
0.06042174339
0.04548505287
0.07565704881
0.1053034027
0.09788759486
0.05667128661
0.04219923057
0.06750066748
0.09091351526
0.1013092137
0.06555736888
0.03993400146
0.06256294987
0.08555332316
0.1046210447
0.07927214709
0.03849872967
0.05950095082
0.08213269414
0.1041903624
0.09120755698
0.03764062367
0.05720023373
0.0784836181
0.09966171095
0.09978220691
0.03710308642
0.05506755158
0.07402827189
0.09203548038
0.1039503373
0.03676189452
0.05337915021
0.07092853179
0.08863262414
0.1051787174
0.03663753716
0.05221034449
0.06894369726
0.08673081249
0.1041630586
0.03670153531
0.05141815309
0.06739526197
0.08457766493
0.1010696762
0.03689825003
0.05077391105
0.06572940779
0.08145460537
0.09577749557
0.03722790544
0.05029714946
0.06423307206
0.07868521781
0.09208444722
0.03764492536
0.04997503332
0.06310996578
0.07685247381
0.09030291719
0.03817992661
0.04984963184
0.06230506232
0.07544862207
0.08865170953
0.03885439228
0.04989415994
0.0616623583
0.07404415945
0.08652134608
0.0396655257
0.05004595529
0.06111455504
0.07276925261
0.08456126614
0.04080722761
0.05068847144
0.06137425756
0.07285630368
0.08478765768
0.04228587838
0.05178090074
0.06226091125
0.07385780476
0.08636536548
0.04259728375
0.05015107237
0.05779835699
0.0662210453
0.07861580023
0.0399647228
0.0439738084
0.0466716374
0.04763973034
0.04659279202
0.03508153954
0.03619444631
0.03587196398
0.03394442532
0.03049706687
0.02954457459
0.02909321609
0.02760599886
0.0251748095
0.02203276495
0.02425940457
0.02325293258
0.02161169664
0.01947040989
0.01702591547
0.01963127965
0.01860485452
0.01718165881
0.01548397452
0.01364588009
0.01573132933
0.01486931084
0.01375458456
0.01247933259
0.01113296852
0.01278152669
0.01211126347
0.01126803685
0.01031896397
0.009324857316
0.01049597397
0.009991145263
0.009363599344
0.008660913872
0.00792470787
0.008746554676
0.008370917847
0.007906110084
0.007385355805
0.006837276451
0.00741707188
0.007137958973
0.006792969988
0.006405031641
0.005993831568
0.006410690822
0.006201785926
0.005943519098
0.005651551594
0.005339397842
0.005649042384
0.005490136034
0.005293679384
0.005070311125
0.004829307122
0.00507014812
0.004946334237
0.004793453239
0.004618740816
0.004428595314
0.004626489703
0.004527191557
0.00440494664
0.004264715273
0.004110957991
0.004282643927
0.004200588248
0.004100032462
0.003984421519
0.003856913279
0.004012383967
0.003942666611
0.003857707173
0.003759939464
0.00365164331
0.003796078737
0.003735436551
0.003661959339
0.003577404647
0.003483458122
0.003618874159
0.003565154016
0.003500395471
0.003425902572
0.003342956812
0.003469605162
0.003421387153
0.003363492139
0.00329691839
0.003222669946
0.003340107423
0.003296441798
0.003244154581
0.003184035069
0.003116893455
0.003224638532
0.003184866691
0.003137315973
0.003082629278
0.003021477535
0.003119331406
0.003082970518
0.003039526097
0.002989534771
0.002933563686
0.003021674914
0.002988347852
0.002948528953
0.002902674439
0.002851270996
0.002930075238
0.002899470437
0.002862890126
0.002820727208
0.00277340369
0.002843519404
0.00281536964
0.002781703237
0.002742861558
0.002699213108
0.002761343205
0.002735414097
0.002704381175
0.00266854282
0.002628222383
0.002683087579
0.002659171651
0.002630526267
0.002597413371
0.002560117681
0.002608413723
0.0025863261
0.002559850254
0.002529216861
0.002494677279
0.00253705416
0.002516629568
0.002492128788
0.002463755485
0.002431732032
0.002468782258
0.002449872498
0.002427172534
0.00240086256
0.002371139667
0.002403390694
0.002385862523
0.002364806714
0.00234038298
0.002312766269
0.002340733439
0.002324466723
0.002304913334
0.002282215182
0.002256527875
0.002280626229
0.002265512677
0.002247334076
0.002226216744
0.002202299312
0.002222921108
0.002208863329
0.002191944577
0.002172277498
0.002149985795
0.002167481598
0.00215439192
0.00213862941
0.002120294703
0.002099498362
0.002114182329
0.002101981463
0.002087281405
0.002070172212
0.00205075285
0.002062909535
0.002051525833
0.002037803393
0.002021822931
0.002003673157
0.002013556882
0.002002925092
0.001990102926
0.001975162839
0.001958184458
0.001966027421
0.001956088583
0.001944096721
0.001930116974
0.001914220908
0.001920225412
0.001910925383
0.001899699494
0.001886606382
0.001871710463
0.001876066444
0.0018673566
0.001856838826
0.001844565991
0.001830596139
0.001833459656
0.001825294597
0.001815430864
0.001803916203
0.001790803
0.001792337687
0.001784677128
0.001775419431
0.001764607767
0.001752289471
0.001752613998
0.001745419548
0.001736722102
0.00172656077
0.001714978395
0.001714249416
0.001707488529
0.001699312502
0.001689756785
0.001678860173
0.001677136977
0.001670777062
0.001663083465
0.001654088386
0.001643827022
0.001641292731
0.001635308365
0.00162806683
0.001619597372
0.001609931909
0.001606596683
0.001600958118
0.001594133074
0.00158614824
0.001577032675
0.001573614994
0.001568300273
0.001561865401
0.001554334603
0.001545734178
0.001545255735
0.001540202509
0.001534082905
0.001526919248
0.001518735811
0.009102359531
0.0005897259394
4.779280846e-05
8.586425909e-06
2.683030723e-06
1.046980136e-06
4.306534726e-07
1.777140192e-07
7.296875508e-08
3.025321796e-08
1.317960339e-08
6.455299774e-09
3.816101617e-09
2.769624904e-09
2.345881442e-09
2.170590785e-09
2.095426194e-09
2.061759415e-09
2.047137115e-09
2.040699128e-09
2.037728918e-09
2.0362363e-09
2.03537963e-09
2.034805359e-09
2.034366518e-09
2.034003329e-09
2.033685743e-09
2.033397547e-09
2.033134811e-09
2.032897183e-09
2.03267803e-09
2.032471745e-09
2.032277744e-09
2.032096619e-09
2.031932438e-09
2.031783395e-09
2.031647584e-09
2.031522017e-09
2.031407164e-09
2.031301319e-09
2.031203594e-09
2.031113075e-09
2.031026633e-09
2.030941248e-09
2.030862903e-09
2.030800773e-09
2.030749735e-09
2.030706861e-09
2.030668091e-09
2.030635304e-09
2.03060628e-09
2.030582438e-09
2.030559823e-09
2.030536357e-09
2.030419713e-09
2.029541277e-09
2.02398711e-09
1.998261069e-09
1.908570386e-09
1.790840663e-09
0.01545991452
0.001641508433
0.0001365135126
2.001526074e-05
5.567305816e-06
2.164493591e-06
9.602324252e-07
4.427385173e-07
2.053151238e-07
9.559592216e-08
4.55170493e-08
2.296719878e-08
1.289327066e-08
8.401660434e-09
6.39290881e-09
5.491619397e-09
5.084699967e-09
4.89984287e-09
4.817329309e-09
4.780586057e-09
4.764028724e-09
4.756281524e-09
4.752373693e-09
4.750156001e-09
4.748734427e-09
4.747695466e-09
4.746829799e-09
4.74607911e-09
4.745456535e-09
4.744924104e-09
4.744434389e-09
4.743968082e-09
4.743546337e-09
4.74320385e-09
4.742935493e-09
4.742698803e-09
4.742490139e-09
4.74228338e-09
4.742124243e-09
4.741955045e-09
4.741852566e-09
4.74179209e-09
4.741703401e-09
4.741630591e-09
4.741535531e-09
4.741489238e-09
4.74144505e-09
4.741456026e-09
4.741472163e-09
4.741494236e-09
4.741511338e-09
4.741555569e-09
4.741569798e-09
4.741626624e-09
4.74145594e-09
4.740258536e-09
4.734464704e-09
4.715377411e-09
4.680253306e-09
4.66075169e-09
0.01846956121
0.002564978901
0.0002061988552
2.653169216e-05
6.793246234e-06
2.632471013e-06
1.236394602e-06
6.280295676e-07
3.258919946e-07
1.701476066e-07
8.962215234e-08
4.837647217e-08
2.752175632e-08
1.710585726e-08
1.196607961e-08
9.463844776e-09
8.2635446e-09
7.69801916e-09
7.436792926e-09
7.317849228e-09
7.263952915e-09
7.239242381e-09
7.227489837e-09
7.221490733e-09
7.218084369e-09
7.215866092e-09
7.214236447e-09
7.212929506e-09
7.211825474e-09
7.210886085e-09
7.210075629e-09
7.20936948e-09
7.208793613e-09
7.208331228e-09
7.207942666e-09
7.207638651e-09
7.207420554e-09
7.207222549e-09
7.207055836e-09
7.206892983e-09
7.206818625e-09
7.206785737e-09
7.206777986e-09
7.206832737e-09
7.206888222e-09
7.206998298e-09
7.207094298e-09
7.207265056e-09
7.207415575e-09
7.207616401e-09
7.207804483e-09
7.208064208e-09
7.208251538e-09
7.208551446e-09
7.208649607e-09
7.208535191e-09
7.207921611e-09
7.211155912e-09
7.242084658e-09
7.292333974e-09
0.02795735293
0.006391904705
0.0005914211732
4.455736501e-05
7.95771686e-06
2.789482088e-06
1.338786234e-06
7.260190153e-07
4.107303577e-07
2.35860891e-07
1.36147448e-07
7.913354307e-08
4.68796927e-08
2.894856832e-08
1.920226042e-08
1.404992701e-08
1.14134596e-08
1.011231036e-08
9.488582015e-09
9.197288278e-09
9.063790981e-09
9.003229191e-09
8.975715588e-09
8.962983913e-09
8.956830609e-09
8.953588094e-09
8.951665688e-09
8.950379911e-09
8.949423984e-09
8.948680115e-09
8.948087157e-09
8.947610448e-09
8.947259709e-09
8.947015867e-09
8.946850666e-09
8.946782335e-09
8.94679716e-09
8.946832655e-09
8.946887545e-09
8.946961758e-09
8.947093813e-09
8.947252872e-09
8.947451214e-09
8.947703833e-09
8.947976272e-09
8.948293071e-09
8.948603985e-09
8.948960378e-09
8.949292126e-09
8.949687926e-09
8.950075381e-09
8.950529741e-09
8.950915125e-09
8.951443829e-09
8.951957812e-09
8.95322711e-09
8.957355316e-09
8.974530778e-09
9.028413969e-09
9.090402281e-09
0.04072742946
0.01342141363
0.002332303094
0.0001872931855
1.865073534e-05
4.239156333e-06
1.689299545e-06
8.685699205e-07
4.956389442e-07
2.957448254e-07
1.797323857e-07
1.100613534e-07
6.800247623e-08
4.273336356e-08
2.783763044e-08
1.933244873e-08
1.467708656e-08
1.224737439e-08
1.102783684e-08
1.04377969e-08
1.016071544e-08
1.003361729e-08
9.976383906e-09
9.950986417e-09
9.939838303e-09
9.934966007e-09
9.932833716e-09
9.931900854e-09
9.931503021e-09
9.931364602e-09
9.931362454e-09
9.931444376e-09
9.931600634e-09
9.931817542e-09
9.932077238e-09
9.932390334e-09
9.932744857e-09
9.93310479e-09
9.933465454e-09
9.933836817e-09
9.934231556e-09
9.934629717e-09
9.935046343e-09
9.935487594e-09
9.935938599e-09
9.936410963e-09
9.936881487e-09
9.937364728e-09
9.937829522e-09
9.938335648e-09
9.938836991e-09
9.939380698e-09
9.939884546e-09
9.94051487e-09
9.941297039e-09
9.9431925e-09
9.948721716e-09
9.96648849e-09
1.000977294e-08
1.005297733e-08
0.05510164942
0.02478727269
0.007278223578
0.001105023059
9.151252945e-05
1.184275585e-05
3.110142616e-06
1.268787805e-06
6.455990917e-07
3.676299487e-07
2.221310134e-07
1.383884509e-07
8.761733599e-08
5.618152162e-08
3.676623394e-08
2.505435558e-08
1.822282191e-08
1.441045904e-08
1.237316704e-08
1.133393018e-08
1.082538735e-08
1.058505355e-08
1.04747737e-08
1.042555091e-08
1.040424145e-08
1.039540671e-08
1.03920341e-08
1.039100445e-08
1.039095899e-08
1.039132313e-08
1.039184922e-08
1.039243751e-08
1.039305365e-08
1.039368173e-08
1.03943089e-08
1.039494025e-08
1.039557051e-08
1.039618708e-08
1.039678854e-08
1.039738226e-08
1.039797272e-08
1.039854881e-08
1.039911984e-08
1.039968637e-08
1.040024247e-08
1.040079726e-08
1.040134671e-08
1.040189309e-08
1.040242134e-08
1.04029572e-08
1.040348184e-08
1.040402476e-08
1.040455163e-08
1.040517719e-08
1.040601879e-08
1.040783898e-08
1.041249587e-08
1.042494191e-08
1.045021442e-08
1.04729689e-08
0.06864049476
0.03694854188
0.01551700441
0.004258962119
0.0005601415946
4.878007982e-05
7.79360004e-06
2.305559411e-06
9.699436722e-07
4.928625537e-07
2.804344291e-07
1.708208665e-07
1.081564557e-07
7.003016747e-08
4.620970091e-08
3.134072285e-08
2.225063398e-08
1.688623305e-08
1.384475157e-08
1.219950363e-08
1.135041195e-08
1.093100511e-08
1.073169922e-08
1.064022652e-08
1.059970505e-08
1.058255104e-08
1.057583237e-08
1.057365248e-08
1.05733894e-08
1.057390363e-08
1.057470913e-08
1.057560655e-08
1.057651716e-08
1.057741128e-08
1.057827633e-08
1.057911231e-08
1.057991868e-08
1.058069349e-08
1.058143826e-08
1.058215758e-08
1.058285418e-08
1.058352496e-08
1.058417498e-08
1.05848047e-08
1.058541237e-08
1.058600249e-08
1.058657587e-08
1.058713617e-08
1.058767811e-08
1.058820946e-08
1.058872457e-08
1.058924148e-08
1.05897551e-08
1.059034893e-08
1.059116051e-08
1.059271358e-08
1.059611755e-08
1.060363177e-08
1.061648261e-08
1.062691631e-08
0.08100248292
0.04898884358
0.02564344093
0.0105062172
0.002545212382
0.0002596468328
2.56732833e-05
5.105706625e-06
1.678773448e-06
7.31559898e-07
3.773667045e-07
2.174590304e-07
1.343424516e-07
8.640164714e-08
5.697742459e-08
3.84803153e-08
2.690887834e-08
1.983726122e-08
1.563715952e-08
1.324119953e-08
1.193631521e-08
1.125861154e-08
1.092215295e-08
1.07617932e-08
1.068825987e-08
1.065593141e-08
1.06425347e-08
1.063758305e-08
1.063628506e-08
1.063650757e-08
1.063732407e-08
1.063834372e-08
1.063940672e-08
1.064045155e-08
1.064145563e-08
1.064241393e-08
1.064332655e-08
1.064419506e-08
1.064502252e-08
1.064581265e-08
1.064656833e-08
1.064729043e-08
1.064798232e-08
1.064864601e-08
1.06492825e-08
1.064989395e-08
1.065048086e-08
1.065104641e-08
1.065159074e-08
1.065211726e-08
1.065262667e-08
1.065313109e-08
1.065364148e-08
1.065422837e-08
1.065502915e-08
1.065641609e-08
1.065902307e-08
1.066377008e-08
1.06706057e-08
1.067544116e-08
0.09156209751
0.06027421508
0.03534318113
0.01842369109
0.007288145894
0.001286112101
0.0001039234777
1.322796875e-05
3.266205706e-06
1.185893751e-06
5.403049737e-07
2.877896534e-07
1.705204864e-07
1.076867252e-07
7.04584533e-08
4.724030274e-08
3.25919869e-08
2.346590924e-08
1.788752048e-08
1.458391997e-08
1.270227228e-08
1.167706571e-08
1.114393544e-08
1.087892015e-08
1.075263367e-08
1.069490831e-08
1.066977006e-08
1.065960659e-08
1.065610941e-08
1.065547737e-08
1.065601923e-08
1.065700254e-08
1.065811955e-08
1.065924667e-08
1.066033693e-08
1.066137573e-08
1.066236045e-08
1.066329298e-08
1.066417679e-08
1.066501571e-08
1.066581324e-08
1.066657198e-08
1.06672951e-08
1.066798513e-08
1.066864421e-08
1.066927458e-08
1.066987747e-08
1.067045503e-08
1.067100861e-08
1.067154096e-08
1.067205584e-08
1.067256513e-08
1.067309048e-08
1.0673701e-08
1.06745386e-08
1.067589743e-08
1.067817856e-08
1.068176317e-08
1.068623266e-08
1.068885877e-08
0.09977640901
0.07150309262
0.04498017222
0.02594640249
0.01287719111
0.0039691841
0.0004354589533
3.629307151e-05
6.474167817e-06
1.942064155e-06
7.834764954e-07
3.862918873e-07
2.194566177e-07
1.359523694e-07
8.815321618e-08
5.863627595e-08
3.994183899e-08
2.81580702e-08
2.082185397e-08
1.636660171e-08
1.37454121e-08
1.226112771e-08
1.145628891e-08
1.103928259e-08
1.083265581e-08
1.073457569e-08
1.069003905e-08
1.067091117e-08
1.066343294e-08
1.066111781e-08
1.066100231e-08
1.066177028e-08
1.066285414e-08
1.066401757e-08
1.06651668e-08
1.066626814e-08
1.066731209e-08
1.066829846e-08
1.066923037e-08
1.067011188e-08
1.067094699e-08
1.067173926e-08
1.067249211e-08
1.067320846e-08
1.067389087e-08
1.067454172e-08
1.067516296e-08
1.067575681e-08
1.067632525e-08
1.067687121e-08
1.067740003e-08
1.067792575e-08
1.067847853e-08
1.067913425e-08
1.068004239e-08
1.068145827e-08
1.068367534e-08
1.068685989e-08
1.069046946e-08
1.069218445e-08
0.1050019926
0.08245097852
0.05524429384
0.03403334881
0.01874772878
0.007584677391
0.001297362989
0.0001035746595
1.304289093e-05
3.131434914e-06
1.113207221e-06
5.120291956e-07
2.813936905e-07
1.720771309e-07
1.110220536e-07
7.349801644e-08
4.959201288e-08
3.435783231e-08
2.473101972e-08
1.877295301e-08
1.518227859e-08
1.308748187e-08
1.191123116e-08
1.127848401e-08
1.095301631e-08
1.079284194e-08
1.071737667e-08
1.068347805e-08
1.066921266e-08
1.066390213e-08
1.066253148e-08
1.066281749e-08
1.066375094e-08
1.066489936e-08
1.066608466e-08
1.066723793e-08
1.066833574e-08
1.066937286e-08
1.067035092e-08
1.067127383e-08
1.067214592e-08
1.067297132e-08
1.067375378e-08
1.06744967e-08
1.067520296e-08
1.06758753e-08
1.067651602e-08
1.067712759e-08
1.067771265e-08
1.067827508e-08
1.067882202e-08
1.067937097e-08
1.067995988e-08
1.068067394e-08
1.068166886e-08
1.068317658e-08
1.0685429e-08
1.068848452e-08
1.069173421e-08
1.069294913e-08
0.1072767557
0.0917508457
0.06549379853
0.0421705717
0.0244374959
0.01124645928
0.002827095806
0.0002721065032
2.782900771e-05
5.112155714e-06
1.553117129e-06
6.645690792e-07
3.55684085e-07
2.160582451e-07
1.393244537e-07
9.217584306e-08
6.191210502e-08
4.239110748e-08
2.98670465e-08
2.198372349e-08
1.713621574e-08
1.423856874e-08
1.256371428e-08
1.16325366e-08
1.113659315e-08
1.088390765e-08
1.076069732e-08
1.070325095e-08
1.0677832e-08
1.066743737e-08
1.066384459e-08
1.066321369e-08
1.06638062e-08
1.066485843e-08
1.066604615e-08
1.06672379e-08
1.066838444e-08
1.066947051e-08
1.067049419e-08
1.067145845e-08
1.067236766e-08
1.067322629e-08
1.067403852e-08
1.067480812e-08
1.067553839e-08
1.06762325e-08
1.067689307e-08
1.067752295e-08
1.067812538e-08
1.067870542e-08
1.067927265e-08
1.067984907e-08
1.068048054e-08
1.068126096e-08
1.068234788e-08
1.068395365e-08
1.068626317e-08
1.068926132e-08
1.069229288e-08
1.069311596e-08
0.1075285122
0.09880455718
0.07485644671
0.05005383997
0.02985909135
0.0146321839
0.004517428809
0.0006254010255
5.487225568e-05
8.240181517e-06
2.112448131e-06
8.405334588e-07
4.410401009e-07
2.672808955e-07
1.726708946e-07
1.144519343e-07
7.681920378e-08
5.227663213e-08
3.630427436e-08
2.608093949e-08
1.968032892e-08
1.577302758e-08
1.345816503e-08
1.213363572e-08
1.140538566e-08
1.102180545e-08
1.082842776e-08
1.07351225e-08
1.069215581e-08
1.067350681e-08
1.06661796e-08
1.066393386e-08
1.066387282e-08
1.066469289e-08
1.066582574e-08
1.066703278e-08
1.066821922e-08
1.066935122e-08
1.067041973e-08
1.067142532e-08
1.067237181e-08
1.067326383e-08
1.067410589e-08
1.067490222e-08
1.067565654e-08
1.067637242e-08
1.067705286e-08
1.067770115e-08
1.067832128e-08
1.067891991e-08
1.067950955e-08
1.0680117e-08
1.068079584e-08
1.068164701e-08
1.068282561e-08
1.068452372e-08
1.068688437e-08
1.068983343e-08
1.069268211e-08
1.069312086e-08
0.1063261245
0.1037798303
0.08305901269
0.05746025777
0.0348109408
0.01749147592
0.006094174991
0.001172002631
0.0001043330056
1.355685091e-05
2.951353057e-06
1.077582107e-06
5.477145611e-07
3.284303763e-07
2.115694752e-07
1.402384305e-07
9.411847187e-08
6.385202571e-08
4.393783465e-08
3.101617596e-08
2.280006294e-08
1.769566167e-08
1.460804194e-08
1.279784632e-08
1.177422309e-08
1.121809579e-08
1.092846224e-08
1.078396568e-08
1.071498754e-08
1.06836635e-08
1.067039825e-08
1.066548169e-08
1.066427809e-08
1.066464647e-08
1.066562881e-08
1.066681078e-08
1.066802074e-08
1.066919235e-08
1.067030343e-08
1.067134962e-08
1.067233318e-08
1.067325852e-08
1.06741304e-08
1.067495343e-08
1.067573178e-08
1.067646932e-08
1.067716952e-08
1.067783627e-08
1.06784745e-08
1.067909289e-08
1.06797073e-08
1.068034939e-08
1.068107965e-08
1.068200376e-08
1.068327124e-08
1.068505248e-08
1.068745144e-08
1.069034485e-08
1.069301803e-08
1.069305599e-08
0.1038352173
0.1066639339
0.08969275847
0.0637767094
0.03840738787
0.01894012331
0.006920401355
0.001726441168
0.0001928124737
2.442994073e-05
4.405846524e-06
1.418405284e-06
6.850816697e-07
4.024189749e-07
2.569185455e-07
1.696725138e-07
1.136912893e-07
7.692517609e-08
5.259633039e-08
3.66626351e-08
2.641548892e-08
1.995912314e-08
1.598984109e-08
1.361752712e-08
1.224440864e-08
1.147771963e-08
1.106605791e-08
1.085388807e-08
1.074904396e-08
1.069952239e-08
1.067739578e-08
1.066833413e-08
1.066527458e-08
1.066485828e-08
1.066553964e-08
1.066663056e-08
1.066783593e-08
1.066903549e-08
1.067018442e-08
1.067126931e-08
1.067228913e-08
1.06732474e-08
1.067414887e-08
1.067499842e-08
1.067580056e-08
1.067655955e-08
1.067727941e-08
1.067796479e-08
1.067862185e-08
1.067926158e-08
1.067990346e-08
1.068058397e-08
1.068136924e-08
1.068236697e-08
1.068371899e-08
1.06855733e-08
1.068799729e-08
1.069082736e-08
1.069332954e-08
1.069298019e-08
0.1001568493
0.1074879107
0.093929795
0.06738697144
0.0390322798
0.01813201561
0.006641290382
0.001968531293
0.0003204302698
4.663879842e-05
7.366564123e-06
1.998963698e-06
8.831797738e-07
4.987152471e-07
3.124921881e-07
2.044642084e-07
1.36345673e-07
9.186173812e-08
6.242119113e-08
4.306766948e-08
3.051715262e-08
2.253862267e-08
1.758163952e-08
1.4578835e-08
1.281004242e-08
1.180026592e-08
1.124345717e-08
1.094769608e-08
1.079665902e-08
1.072268354e-08
1.068814514e-08
1.067303609e-08
1.066715054e-08
1.066547551e-08
1.066563268e-08
1.066653083e-08
1.066768653e-08
1.066889451e-08
1.067007295e-08
1.067119294e-08
1.067224742e-08
1.067323782e-08
1.067416835e-08
1.067504399e-08
1.067586957e-08
1.067664975e-08
1.067738922e-08
1.067809354e-08
1.067877035e-08
1.067943323e-08
1.068010533e-08
1.068082769e-08
1.068167075e-08
1.068274188e-08
1.068417337e-08
1.068609055e-08
1.068852715e-08
1.069128722e-08
1.069362412e-08
1.06929148e-08
0.09706198205
0.1065232392
0.09380924347
0.0647863389
0.03434128857
0.01469133589
0.005399825856