/*--------------------------------*- C++ -*----------------------------------*\
  =========                 |
  \\      /  F ield         | OpenFOAM: The Open Source CFD Toolbox
   \\    /   O peration     | Website:  https://openfoam.org
    \\  /    A nd           | Version:  10
     \\/     M anipulation  |
\*---------------------------------------------------------------------------*/
FoamFile
{
    format      ascii;
    class       volScalarField;
    location    "0.02498436188";
    object      CO2_0;
}
// * * * * * * * * * * * * * * * * * * * * * * * * * * * * * * * * * * * * * //

dimensions      [0 0 0 0 0 0 0];

internalField   nonuniform List<scalar> 
5170
(
2.925949712e-12
2.92072418e-12
2.886446549e-12
2.644662923e-12
2.072635671e-13
5.898488219e-12
5.882226177e-12
5.809492798e-12
5.438256945e-12
3.339526711e-12
8.851359645e-12
8.824551238e-12
8.718635436e-12
8.276544311e-12
6.534656836e-12
1.176621846e-11
1.173018734e-11
1.159981217e-11
1.113048799e-11
9.746047546e-12
1.464090794e-11
1.459732048e-11
1.445199462e-11
1.399026992e-11
1.295802987e-11
1.747613377e-11
1.742780393e-11
1.727716253e-11
1.685454877e-11
1.616980819e-11
2.027649918e-11
2.022587868e-11
2.007916815e-11
1.972601791e-11
1.938404308e-11
2.30490842e-11
2.299957714e-11
2.286553415e-11
2.260681755e-11
2.260497477e-11
2.579993106e-11
2.575426502e-11
2.564229579e-11
2.550221717e-11
2.583722945e-11
2.853483392e-11
2.849499151e-11
2.841135338e-11
2.841705108e-11
2.908527037e-11
3.12569365e-11
3.122508921e-11
3.117561297e-11
3.135353533e-11
3.235005319e-11
3.396675236e-11
3.394558857e-11
3.394219256e-11
3.431126067e-11
3.562853077e-11
3.666495295e-11
3.66571876e-11
3.671320358e-11
3.729005824e-11
3.891692787e-11
3.935160176e-11
3.936014166e-11
3.948759153e-11
4.028871631e-11
4.221074232e-11
4.202614041e-11
4.205452171e-11
4.226485427e-11
4.330423469e-11
4.550443886e-11
4.468724341e-11
4.473942726e-11
4.504819915e-11
4.633567764e-11
4.878871747e-11
4.733456377e-11
4.741520303e-11
4.783604874e-11
4.939178235e-11
5.212632884e-11
5.003510351e-11
5.02962909e-11
5.188310554e-11
6.150036544e-11
9.00352793e-11
7.702970768e-11
1.508021632e-10
7.162687116e-10
4.878525478e-09
1.962873396e-08
7.319182654e-09
4.059459023e-08
3.249508138e-07
2.302315076e-06
1.118160923e-05
0.1123777447
0.1123705966
0.1123710817
0.1123636854
0.1123598467
0.1138394499
0.1136761221
0.1136789553
0.1136860461
0.113901418
0.114605352
0.1144130717
0.1144158982
0.1144738902
0.1147153193
0.1150343159
0.1148560311
0.1148537342
0.1149416953
0.1151456272
0.1153009534
0.115143718
0.1151405922
0.1152276927
0.1154144171
0.1154545111
0.1153324434
0.1153219315
0.115411244
0.1155629127
0.1155863231
0.1154592431
0.1154493656
0.1155289754
0.1156583953
0.1156638138
0.1155729373
0.1155614961
0.1156148532
0.1157472699
0.1157400297
0.115646422
0.1156363339
0.1157014497
0.1158222303
0.1158078843
0.1157227444
0.1157111554
0.1157750251
0.1158699942
0.1158572693
0.1157881104
0.1157774544
0.1158355129
0.1159055024
0.1158923457
0.1158432498
0.1158347666
0.1158761921
0.1159357466
0.11592119
0.1158775475
0.1158723454
0.1159116644
0.1159642309
0.1159482947
0.1159093386
0.1159064962
0.1159413446
0.115989905
0.1159738264
0.1159368762
0.1159352324
0.1159685039
0.1160132324
0.1159969292
0.1159629862
0.115962151
0.1159931189
0.1160336491
0.1160181483
0.1159875734
0.1159874801
0.1160160638
0.1160525236
0.1160364333
0.1160102858
0.1160111325
0.1160370246
0.1160695529
0.1160515728
0.1160308915
0.1160322046
0.1160529679
0.1160788252
0.1161515005
0.1160810344
0.1159687538
0.1158443733
0.1155682152
2.7480598e-07
2.141706268e-06
3.305426664e-05
0.0004931138855
0.006612824752
1.50206726e-06
1.014036566e-05
0.0001237531718
0.001295854983
0.009841795094
4.994447254e-06
3.025530339e-05
0.000302099635
0.002385640259
0.01215195332
1.297859117e-05
7.113409439e-05
0.0005965848474
0.003707860093
0.01388295364
2.921508789e-05
0.000145496947
0.001040251595
0.005171300513
0.01518824453
6.076291236e-05
0.0002780524662
0.001677427598
0.006666706232
0.01627532636
0.0001189357464
0.0004993464326
0.002513620335
0.008139138778
0.01733115552
0.0002203214404
0.0008411086155
0.003527083162
0.009570759764
0.01838369439
0.0003912946446
0.001342932833
0.004689683687
0.0109504868
0.01940049804
0.0006716025047
0.002040711029
0.005969604263
0.01230329445
0.02041159667
0.001122708228
0.002976366067
0.00734960218
0.01364951948
0.02143308083
0.001864280152
0.004172148033
0.00880304169
0.01501449509
0.0224843915
0.003032742375
0.005618544565
0.01033981275
0.01641877189
0.02358624465
0.00458633534
0.007277613231
0.01196190769
0.01786614638
0.02473106164
0.006629202899
0.009209081668
0.01372026976
0.01939248441
0.02594716423
0.009014976002
0.01138655441
0.01565063453
0.02105288975
0.02728278489
0.01178863305
0.01391855338
0.01786753257
0.02293446008
0.02879689125
0.01499914933
0.01685031566
0.02041387061
0.02509793069
0.03058819756
0.01840263724
0.02001261984
0.02321909459
0.02753873277
0.03266396781
0.02199341404
0.02339151803
0.02620053649
0.0299822081
0.03441484743
0.02558800942
0.02665935098
0.0287776707
0.03152837807
0.03457224475
0.02808897188
0.02864103828
0.02972846436
0.03110044849
0.03252433206
0.027727624
0.02790284892
0.02822856235
0.02859170972
0.02887758386
0.02497098091
0.02496122911
0.02490797257
0.02476960227
0.02450326186
0.02111667919
0.02104223786
0.02086011114
0.0205622902
0.02014306027
0.01720153033
0.01712030339
0.01693289318
0.01664055867
0.01624666472
0.0139955894
0.01392728948
0.01376993431
0.01352785793
0.01320731692
0.01143405005
0.0113806299
0.01125850029
0.01107200844
0.01082694258
0.009451172983
0.009410920659
0.009319400322
0.009180160343
0.008997687455
0.007941426037
0.007911564827
0.007843939493
0.007741225858
0.007606652284
0.00680222278
0.006780100826
0.006730169538
0.006654371675
0.006554938999
0.005945768713
0.005929199616
0.005891915318
0.005835318759
0.005760923593
0.005300586905
0.005287902248
0.005259453598
0.005216268436
0.005159371524
0.004810964359
0.004800968561
0.004778629181
0.004744724284
0.004699956849
0.004435085154
0.004426954799
0.004408852101
0.004381389764
0.00434506148
0.004142102706
0.00413528636
0.004120162901
0.00409723512
0.004066861218
0.003909179392
0.003903312586
0.003890337085
0.003870679746
0.003844610227
0.003719306852
0.003714151853
0.003702779652
0.003685562318
0.003662710746
0.003559921081
0.003555322659
0.003545197892
0.003529876588
0.003509529402
0.003421986328
0.003417842229
0.003408729664
0.00339494415
0.003376627743
0.003299240014
0.00329548016
0.003287219458
0.003274724188
0.00325811508
0.003187514153
0.003184088099
0.003176564194
0.003165183255
0.003150049471
0.003084122722
0.003080991517
0.003074116705
0.003063716493
0.0030498817
0.002987365065
0.002984497048
0.002978200431
0.002968673362
0.00295599559
0.002896154345
0.002893522545
0.002887744455
0.00287900027
0.002867360372
0.002809769305
0.002807350347
0.002802039141
0.002793999886
0.002783294968
0.002727701881
0.002725475172
0.002720585645
0.00271318316
0.002703323186
0.00264957101
0.002647518345
0.002643010496
0.002636184509
0.002627089861
0.002575071618
0.002573176779
0.002569015108
0.00256271212
0.002554312059
0.002503944144
0.002502192692
0.002498345501
0.002492517749
0.002484749107
0.002435952548
0.002434331423
0.00243077028
0.002425374968
0.00241818113
0.002370924059
0.002369421803
0.002366121326
0.002361120082
0.002354450194
0.002308652356
0.002307258449
0.002304195726
0.002299554035
0.002293362379
0.002248968196
0.002247673282
0.002244827787
0.002240514687
0.002234760231
0.002191716241
0.002190511912
0.00218786524
0.002183852952
0.002178498854
0.002136754958
0.002135633645
0.002133169188
0.002129432647
0.002124445657
0.002083955881
0.00208291075
0.00208061355
0.002077130168
0.002072480301
0.002033200352
0.002032225209
0.00203008167
0.002026830917
0.00202249092
0.001984379385
0.001983468633
0.001981466501
0.001978429863
0.001974375142
0.00193738787
0.001936536398
0.001934664447
0.001931824968
0.001928032992
0.001892130989
0.001891334198
0.001889582362
0.001886924819
0.001883375356
0.001848511507
0.001847765133
0.001846124038
0.001843634263
0.001840308473
0.001806452611
0.001805752856
0.001804214186
0.001801879603
0.001798760761
0.001765863805
0.001765207084
0.001763762956
0.001761571641
0.001758643877
0.001726695358
0.001726078606
0.001724722309
0.001722664114
0.001719913928
0.001688839617
0.001688259814
0.001686984699
0.001685049551
0.001682463527
0.00165230023
0.001651754955
0.001650555735
0.00164873565
0.001646303174
0.001616964103
0.00161645061
0.001615321219
0.001613607003
0.001611315833
0.001583384293
0.001582900484
0.001581836394
0.001580221224
0.001578062273
0.001554540274
0.001554080595
0.001553069494
0.001551534641
0.001549482863
0.02421026726
0.02432280438
0.02432947024
0.02431749365
0.02435457518
0.02455399348
0.02495843317
0.02547852399
0.02602900278
0.02664302517
0.02732530183
0.02807307814
0.0289011708
0.02977837823
0.03074162383
0.03182629186
0.03307131615
0.03462148417
0.03646045149
0.03761751636
0.0366199603
0.03339961168
0.02898309005
0.02425463279
0.01981306708
0.01594508784
0.01296607696
0.01064328145
0.008860803924
0.007505291866
0.006479568885
0.00570406935
0.005115475649
0.004665068294
0.004316464409
0.004042728778
0.003823731289
0.003644290443
0.003493046882
0.003361737081
0.003244578293
0.00313769345
0.003038572313
0.002945622768
0.002857830265
0.002774525627
0.002695242351
0.00261963332
0.002547422571
0.002478375454
0.002412277289
0.002348974925
0.002288278433
0.00223003419
0.00217410069
0.002120348249
0.002068659176
0.002018923818
0.00197104197
0.00192491533
0.001880456662
0.001837573338
0.001796195498
0.001756235492
0.001717651364
0.001680335797
0.001644301591
0.00160943039
0.00157628546
0.00154779406
0.05974929022
0.1082745243
0.1128044848
0.1031439096
0.0762005952
0.05015400062
0.08675858339
0.1131419998
0.09703673411
0.06042746188
0.04549204399
0.07567389618
0.1053406211
0.09784606531
0.05664907124
0.04219941495
0.06750172534
0.09090753073
0.101327575
0.06557528004
0.03992980571
0.06256106469
0.08555044388
0.1046278989
0.07928079833
0.03849521216
0.05949932746
0.08213489689
0.1041891107
0.09119738555
0.03764681412
0.0572110783
0.07849779003
0.09964937553
0.09975935418
0.03711137743
0.0550798626
0.07404441471
0.09205148371
0.1039459059
0.03676556596
0.05338305769
0.07093183005
0.08862629498
0.1051775505
0.0366381078
0.05221008631
0.0689430295
0.08673480204
0.1041633326
0.03670106792
0.05141647846
0.06739347216
0.08457679335
0.1010750726
0.03690073214
0.0507766374
0.06573272775
0.08145985502
0.09578485157
0.03722978673
0.05029926224
0.06423427869
0.07868552042
0.09208373104
0.03764198295
0.04997083956
0.06310450325
0.07684665253
0.09029827529
0.03817460234
0.04984374503
0.06229821807
0.0754405452
0.08864279255
0.03884833286
0.04988685243
0.0616533749
0.07403363182
0.08651366558
0.03966100298
0.05004228596
0.06111717291
0.0727902499
0.08461939687
0.04081603293
0.05071047554
0.06142234523
0.07294937444
0.08495182248
0.04227911655
0.05177485428
0.06226374412
0.07387685467
0.08639098169
0.04246508433
0.04987981251
0.05721059221
0.06481860815
0.07501454169
0.03970142875
0.0435622845
0.04604677581
0.0466896506
0.04521459256
0.03476671514
0.03578753684
0.03537631887
0.0333709321
0.02987842253
0.0292488832
0.02875660719
0.02724704677
0.02481670991
0.02169960359
0.02401111194
0.02299642039
0.02135943383
0.01923601892
0.01682047097
0.01943823137
0.01841561983
0.01700395031
0.01532442972
0.01350901622
0.01558895509
0.01473365331
0.01362997593
0.01236893955
0.01103854716
0.01267769897
0.01201344346
0.01117881008
0.01024001795
0.009256970564
0.01042147161
0.009921215391
0.009299858042
0.00860434611
0.007875715968
0.008693736165
0.00832135052
0.007860840982
0.007345002615
0.006802079613
0.007380027692
0.007103139809
0.00676106742
0.006376450179
0.005968729683
0.006384970887
0.006177541581
0.005921210316
0.005631449435
0.005321613681
0.005631346913
0.005473389378
0.005278187041
0.005056256954
0.004816772474
0.005058077948
0.004934856271
0.004782769686
0.004608976785
0.004419810954
0.004618338634
0.004519399819
0.004397647457
0.004257993616
0.004104857984
0.004277215847
0.00419537171
0.004095114879
0.003979860146
0.003852739928
0.004008838517
0.003939241379
0.003854458968
0.003756906414
0.00364884777
0.003793818166
0.003733241369
0.003659865901
0.003575437827
0.003481633179
0.003617470567
0.003563784176
0.003499082093
0.003424661478
0.003341798055
0.003468755421
0.003420553821
0.003362688993
0.003296155188
0.003221953076
0.003339602726
0.003295944599
0.003243672979
0.003183574887
0.003116458617
0.003224340784
0.003184572212
0.003137029384
0.003082353955
0.003021215822
0.003119153485
0.003082794043
0.003039353645
0.002989368265
0.002933404502
0.003021564483
0.002988238175
0.002948421462
0.002902570225
0.002851170871
0.002930002203
0.002899397923
0.002862818944
0.002820657998
0.002773336942
0.002843467092
0.002815317784
0.002781652322
0.002742811981
0.002699165187
0.002761302586
0.002735373915
0.002704341748
0.002668504415
0.002628185225
0.002683053833
0.002659138332
0.002630493608
0.00259738157
0.002560086909
0.002608384293
0.002586297082
0.002559821837
0.002529189206
0.002494650528
0.002537027671
0.002516603469
0.002492103244
0.002463730635
0.002431708002
0.002468757941
0.002449848544
0.002427149091
0.002400839755
0.00237111761
0.002403368095
0.002385840252
0.002364784908
0.002340361753
0.002312745723
0.002340712147
0.002324445722
0.002304892748
0.002282195118
0.002256508426
0.002280606014
0.002265492713
0.002247314482
0.002226197619
0.00220228074
0.002222901814
0.002208844254
0.002191925831
0.002172259173
0.002149967972
0.002167463117
0.002154373627
0.002138611411
0.002120277085
0.0020994812
0.002114164595
0.00210196389
0.002087264094
0.002070155246
0.002050736298
0.002062892515
0.002051508952
0.002037786744
0.002021806593
0.002003657196
0.002013540563
0.002002908889
0.001990086928
0.001975147122
0.001958169083
0.001966011785
0.001956073043
0.001944081362
0.001930101864
0.001914206107
0.001920210432
0.001910910483
0.001899684751
0.001886591863
0.001871696222
0.001876052079
0.001867342299
0.001856824663
0.001844552025
0.001830582422
0.001833445856
0.001825280846
0.00181541723
0.001803902741
0.001790789757
0.001792324426
0.001784663902
0.001775406304
0.001764594789
0.001752276685
0.001752601263
0.001745406836
0.001736709472
0.00172654827
0.001714966063
0.001714237198
0.001707476327
0.001699300369
0.001689744766
0.001678848305
0.001677125229
0.001670765323
0.001663071785
0.001654076805
0.001643815575
0.001641281383
0.001635297012
0.001628055518
0.00161958614
0.001609920787
0.001606585677
0.001600947084
0.001594122052
0.001586137262
0.001577021769
0.001573604429
0.00156828964
0.001561854726
0.001554323909
0.001545723483
0.00154524593
0.001540192647
0.001534073004
0.001526909321
0.001518725871
0.009103051183
0.0005900646901
4.785621459e-05
8.59693492e-06
2.685462344e-06
1.047584158e-06
4.307435758e-07
1.776839352e-07
7.293003798e-08
3.02297855e-08
1.316948651e-08
6.452729014e-09
3.817030234e-09
2.771975544e-09
2.348760015e-09
2.173657029e-09
2.098559575e-09
2.06491734e-09
2.050305083e-09
2.043871428e-09
2.040902905e-09
2.039410876e-09
2.038554382e-09
2.037980193e-09
2.037541561e-09
2.037178638e-09
2.036861383e-09
2.036573565e-09
2.036311243e-09
2.036074066e-09
2.035855369e-09
2.035649543e-09
2.035456052e-09
2.035275467e-09
2.035111816e-09
2.034963267e-09
2.034827955e-09
2.034702884e-09
2.03458851e-09
2.034483123e-09
2.034385843e-09
2.034295717e-09
2.034209656e-09
2.034124599e-09
2.034046572e-09
2.033984749e-09
2.033933997e-09
2.033891384e-09
2.033852846e-09
2.033820279e-09
2.033791453e-09
2.033767793e-09
2.033745338e-09
2.033722065e-09
2.03360589e-09
2.032729344e-09
2.027181595e-09
2.001468766e-09
1.911783966e-09
1.794068388e-09
0.01546054942
0.001641242909
0.0001364768992
2.000916904e-05
5.565489679e-06
2.163655629e-06
9.597904563e-07
4.424488772e-07
2.051428085e-07
9.550485987e-08
4.547477241e-08
2.295075621e-08
1.288917995e-08
8.403018415e-09
6.396551026e-09
5.496205743e-09
5.089686571e-09
4.905008634e-09
4.822578363e-09
4.78587393e-09
4.769334284e-09
4.761595292e-09
4.757691133e-09
4.755475257e-09
4.754055158e-09
4.753017508e-09
4.752153096e-09
4.751403934e-09
4.750782852e-09
4.750252185e-09
4.749764174e-09
4.749299697e-09
4.748880171e-09
4.74854008e-09
4.748273762e-09
4.748038717e-09
4.747832293e-09
4.74762788e-09
4.74747064e-09
4.747303124e-09
4.747202806e-09
4.747143964e-09
4.747057085e-09
4.746985696e-09
4.746892525e-09
4.746847906e-09
4.746805051e-09
4.746817369e-09
4.74683421e-09
4.746857395e-09
4.746875386e-09
4.746920371e-09
4.746935255e-09
4.746992999e-09
4.74682386e-09
4.745632812e-09
4.739861504e-09
4.72084955e-09
4.685922347e-09
4.666659024e-09
0.0184658127
0.00256313721
0.0002058958717
2.649325244e-05
6.78550417e-06
2.629963045e-06
1.235289985e-06
6.274217065e-07
3.255478455e-07
1.699600034e-07
8.952549209e-08
4.832999171e-08
2.750136719e-08
1.70983523e-08
1.196474562e-08
9.46544055e-09
8.266555739e-09
7.701731162e-09
7.440847988e-09
7.322070474e-09
7.268253436e-09
7.243580862e-09
7.23184773e-09
7.225860196e-09
7.222462318e-09
7.22025115e-09
7.218627924e-09
7.21732729e-09
7.216229185e-09
7.215295569e-09
7.214490887e-09
7.213790392e-09
7.213220113e-09
7.212763061e-09
7.212379596e-09
7.212080759e-09
7.211867721e-09
7.211674424e-09
7.21151215e-09
7.211353643e-09
7.21128342e-09
7.211254324e-09
7.211250347e-09
7.211308367e-09
7.211367203e-09
7.211480309e-09
7.211579096e-09
7.211752284e-09
7.211904552e-09
7.212107393e-09
7.212297264e-09
7.212558375e-09
7.212747004e-09
7.213048287e-09
7.213148525e-09
7.213041037e-09
7.212450031e-09
7.215751075e-09
7.246816466e-09
7.297173993e-09
0.02796163975
0.006389369859
0.0005904228004
4.445133166e-05
7.941977822e-06
2.785384145e-06
1.337161677e-06
7.25207947e-07
4.102808186e-07
2.356074754e-07
1.360070089e-07
7.905730032e-08
4.683899735e-08
2.892722529e-08
1.919137614e-08
1.40446985e-08
1.141131009e-08
1.011182832e-08
9.488968467e-09
9.198111016e-09
9.06482697e-09
9.004368761e-09
8.976907978e-09
8.96420625e-09
8.958072546e-09
8.95484482e-09
8.952934794e-09
8.951660128e-09
8.950714489e-09
8.949980262e-09
8.949396416e-09
8.948928321e-09
8.948585743e-09
8.948349593e-09
8.948191583e-09
8.948130113e-09
8.94815144e-09
8.948193037e-09
8.948253656e-09
8.948333384e-09
8.948470591e-09
8.94863422e-09
8.948836872e-09
8.949093334e-09
8.94936936e-09
8.949689295e-09
8.95000303e-09
8.950361778e-09
8.95069552e-09
8.951093066e-09
8.951482014e-09
8.951937411e-09
8.952323702e-09
8.95285305e-09
8.953368074e-09
8.954639258e-09
8.95877141e-09
8.975946025e-09
9.029784247e-09
9.09167866e-09
0.04072499486
0.01341634476
0.002330118665
0.0001869418978
1.860870524e-05
4.230667125e-06
1.686376023e-06
8.6724772e-07
4.949688243e-07
2.953871857e-07
1.795354273e-07
1.099496747e-07
6.793685781e-08
4.269414332e-08
2.781401718e-08
1.931824681e-08
1.466846247e-08
1.224191884e-08
1.102409058e-08
1.04349312e-08
1.015828576e-08
1.003139876e-08
9.974268362e-09
9.948923478e-09
9.937804895e-09
9.932951632e-09
9.930833428e-09
9.929912204e-09
9.929524615e-09
9.929395489e-09
9.929401938e-09
9.929491797e-09
9.929655385e-09
9.929879072e-09
9.930144994e-09
9.930463838e-09
9.930823687e-09
9.93118859e-09
9.931553911e-09
9.931929657e-09
9.932328422e-09
9.932730175e-09
9.93315008e-09
9.933594177e-09
9.934047709e-09
9.934522157e-09
9.934994551e-09
9.935479293e-09
9.935945351e-09
9.93645234e-09
9.936954311e-09
9.937498214e-09
9.938002195e-09
9.938632098e-09
9.939413526e-09
9.941305317e-09
9.946821354e-09
9.964538961e-09
1.000768631e-08
1.005072944e-08
0.05508224861
0.0247732259
0.007272425872
0.001103543668
9.126879456e-05
1.180483983e-05
3.100777354e-06
1.265476693e-06
6.441873837e-07
3.669742206e-07
2.218092713e-07
1.382205558e-07
8.752334894e-08
5.612558884e-08
3.673194655e-08
2.503262305e-08
1.820868619e-08
1.44008534e-08
1.236613743e-08
1.13282897e-08
1.082045748e-08
1.058047264e-08
1.047036017e-08
1.042121764e-08
1.039994821e-08
1.039113512e-08
1.038777573e-08
1.038675547e-08
1.038671756e-08
1.038708803e-08
1.038761978e-08
1.038821321e-08
1.038883398e-08
1.038946625e-08
1.039009724e-08
1.039073204e-08
1.039136541e-08
1.039198482e-08
1.039258889e-08
1.039318498e-08
1.039377755e-08
1.039435553e-08
1.039492823e-08
1.039549615e-08
1.039605342e-08
1.03966091e-08
1.039715928e-08
1.039770615e-08
1.039823476e-08
1.039877069e-08
1.039929526e-08
1.039983781e-08
1.040036427e-08
1.040098886e-08
1.040182875e-08
1.040364333e-08
1.04082828e-08
1.042067551e-08
1.044582707e-08
1.046845906e-08
0.06862026999
0.03693665908
0.01551076437
0.004257389098
0.0005590248597
4.858814954e-05
7.761566092e-06
2.29695854e-06
9.6684068e-07
4.915874852e-07
2.798749212e-07
1.705597094e-07
1.080237609e-07
6.995567768e-08
4.616427461e-08
3.131155647e-08
2.223130809e-08
1.687301469e-08
1.383518541e-08
1.21919474e-08
1.134393081e-08
1.092506778e-08
1.072602523e-08
1.063467641e-08
1.05942128e-08
1.057708623e-08
1.05703813e-08
1.056820911e-08
1.056795101e-08
1.056846882e-08
1.056927728e-08
1.05701772e-08
1.057109e-08
1.057198606e-08
1.057285281e-08
1.05736903e-08
1.057449798e-08
1.057527396e-08
1.057601976e-08
1.057673998e-08
1.057743733e-08
1.057810875e-08
1.05787593e-08
1.057938941e-08
1.057999738e-08
1.058058768e-08
1.058116113e-08
1.058172136e-08
1.058226319e-08
1.058279429e-08
1.058330908e-08
1.058382551e-08
1.058433862e-08
1.058493154e-08
1.058574149e-08
1.058728998e-08
1.059068095e-08
1.059815987e-08
1.061094056e-08
1.062130897e-08
0.08099243209
0.04898032426
0.0256422469
0.0105106403
0.002542831219
0.0002584472607
2.552061221e-05
5.07819725e-06
1.671040918e-06
7.287875617e-07
3.762642408e-07
2.169948745e-07
1.341323311e-07
8.629516357e-08
5.691632608e-08
3.844196679e-08
2.688362176e-08
1.982009019e-08
1.562496033e-08
1.323193795e-08
1.192871343e-08
1.125187259e-08
1.091583439e-08
1.075567468e-08
1.068223342e-08
1.06499464e-08
1.063656823e-08
1.063162507e-08
1.063033119e-08
1.063055591e-08
1.063137379e-08
1.06323944e-08
1.063345815e-08
1.063450358e-08
1.063550815e-08
1.063646684e-08
1.063737978e-08
1.063824855e-08
1.063907621e-08
1.063986647e-08
1.064062224e-08
1.064134436e-08
1.064203624e-08
1.064269987e-08
1.064333626e-08
1.064394757e-08
1.064453431e-08
1.064509962e-08
1.064564369e-08
1.064616994e-08
1.064667905e-08
1.064718309e-08
1.064769307e-08
1.06482793e-08
1.064907896e-08
1.065046305e-08
1.065306278e-08
1.065779212e-08
1.066459594e-08
1.066940324e-08
0.09155994755
0.06026642282
0.03533426996
0.01841937283
0.007281809351
0.001279894433
0.0001030565129
1.312905631e-05
3.245764947e-06
1.179568765e-06
5.379926705e-07
2.868967806e-07
1.701578375e-07
1.075231677e-07
7.037267071e-08
4.718901477e-08
3.255896409e-08
2.344383136e-08
1.787223277e-08
1.457276618e-08
1.269352189e-08
1.166963525e-08
1.113718819e-08
1.087250637e-08
1.074637484e-08
1.068871865e-08
1.066361012e-08
1.065345922e-08
1.06499673e-08
1.064933743e-08
1.064988018e-08
1.065086383e-08
1.065198096e-08
1.065310809e-08
1.06541983e-08
1.065523702e-08
1.065622162e-08
1.065715403e-08
1.065803768e-08
1.065887644e-08
1.065967378e-08
1.066043233e-08
1.066115525e-08
1.066184507e-08
1.066250395e-08
1.06631341e-08
1.066373678e-08
1.06643141e-08
1.066486744e-08
1.066539954e-08
1.066591416e-08
1.066642315e-08
1.066694818e-08
1.066755824e-08
1.066839511e-08
1.066975238e-08
1.067203005e-08
1.067560709e-08
1.068006387e-08
1.068267886e-08
0.09977353006
0.07149966752
0.04497530769
0.0259377248
0.01286056492
0.003946018566
0.0004304749966
3.591475969e-05
6.421735854e-06
1.928561113e-06
7.7895615e-07
3.846628658e-07
2.188448607e-07
1.357003121e-07
8.803115119e-08
5.856674264e-08
3.989818459e-08
2.812943852e-08
2.080252062e-08
1.635300251e-08
1.373523007e-08
1.225288933e-08
1.144909776e-08
1.103262394e-08
1.082625324e-08
1.072829035e-08
1.06838052e-08
1.066469911e-08
1.065722975e-08
1.065491804e-08
1.065480373e-08
1.065557198e-08
1.065665578e-08
1.065781901e-08
1.065896799e-08
1.066006907e-08
1.066111276e-08
1.066209887e-08
1.066303052e-08
1.066391177e-08
1.066474663e-08
1.066553865e-08
1.066629125e-08
1.066700735e-08
1.066768951e-08
1.066834012e-08
1.066896112e-08
1.066955473e-08
1.067012294e-08
1.067066866e-08
1.067119723e-08
1.06717227e-08
1.06722752e-08
1.067293054e-08
1.067383816e-08
1.067525312e-08
1.06774685e-08
1.068064974e-08
1.068425394e-08
1.068596413e-08
0.1050026171
0.082456068
0.05524419281
0.03402072079
0.01871991764
0.007538703944
0.001280159851
0.0001022912385
1.291357634e-05
3.103749388e-06
1.104970565e-06
5.092860507e-07
2.804292251e-07
1.717048497e-07
1.108513217e-07
7.340410173e-08
4.953407014e-08
3.432037057e-08
2.470623164e-08
1.875605744e-08
1.517016682e-08
1.307815705e-08
1.190345341e-08
1.127152141e-08
1.094646036e-08
1.078647831e-08
1.071109981e-08
1.067723871e-08
1.06629889e-08
1.065768451e-08
1.065631608e-08
1.065660272e-08
1.065753617e-08
1.065868437e-08
1.065986937e-08
1.066102231e-08
1.066211979e-08
1.066315659e-08
1.066413435e-08
1.066505695e-08
1.066592875e-08
1.066675386e-08
1.066753605e-08
1.06682787e-08
1.066898469e-08
1.066965677e-08
1.067029724e-08
1.067090857e-08
1.067149339e-08
1.067205558e-08
1.067260228e-08
1.067315098e-08
1.06737396e-08
1.067445332e-08
1.067544777e-08
1.067695482e-08
1.067920615e-08
1.068225977e-08
1.068550648e-08
1.068671869e-08
0.1073022718
0.09175602261
0.06548974357
0.04214512878
0.02438760375
0.01117215478
0.002788749842
0.0002670002546
2.740185406e-05
5.047283043e-06
1.537620084e-06
6.60036172e-07
3.542128658e-07
2.155154406e-07
1.390822849e-07
9.204547111e-08
6.183335735e-08
4.234112453e-08
2.983488923e-08
2.196233847e-08
1.712145262e-08
1.422773405e-08
1.255511336e-08
1.16251446e-08
1.112982377e-08
1.087744224e-08
1.0754373e-08
1.069698916e-08
1.067159678e-08
1.066121292e-08
1.065762423e-08
1.065699468e-08
1.065758745e-08
1.065863951e-08
1.065982693e-08
1.066101832e-08
1.066216451e-08
1.066325023e-08
1.066427356e-08
1.06652375e-08
1.066614639e-08
1.066700472e-08
1.066781665e-08
1.066858596e-08
1.066931595e-08
1.067000979e-08
1.067067011e-08
1.067129973e-08
1.067190191e-08
1.067248171e-08
1.067304869e-08
1.067362484e-08
1.067425602e-08
1.067503608e-08
1.067612253e-08
1.067772765e-08
1.068003623e-08
1.068303283e-08
1.068606212e-08
1.068688323e-08
0.1075281505
0.09880204334
0.07483834982
0.04999960346
0.02977228239
0.01452679873
0.004452030618
0.0006100351129
5.385937266e-05
8.104236081e-06
2.085353122e-06
8.336616299e-07
4.389858517e-07
2.665451747e-07
1.723435912e-07
1.142761066e-07
7.671368396e-08
5.221006443e-08
3.62616346e-08
2.605366838e-08
1.966203199e-08
1.576014425e-08
1.34484266e-08
1.212563894e-08
1.139831035e-08
1.101519294e-08
1.082203589e-08
1.072883083e-08
1.068590766e-08
1.066727677e-08
1.065995668e-08
1.06577135e-08
1.065765316e-08
1.065847322e-08
1.065960579e-08
1.066081248e-08
1.066199853e-08
1.066313016e-08
1.06641983e-08
1.066520353e-08
1.066614969e-08
1.066704138e-08
1.066788314e-08
1.066867916e-08
1.066943319e-08
1.067014879e-08
1.067082895e-08
1.067147698e-08
1.067209685e-08
1.067269521e-08
1.067328459e-08
1.067389177e-08
1.067457029e-08
1.067542107e-08
1.067659917e-08
1.06782966e-08
1.068065628e-08
1.068360384e-08
1.06864505e-08
1.06868876e-08
0.1063189175
0.1037645899
0.08301629448
0.05736112508
0.03466443908
0.01733203277
0.005992600539
0.001141299224
0.0001014734819
1.325908929e-05
2.905796257e-06
1.067500703e-06
5.448805795e-07
3.274370986e-07
2.111300383e-07
1.400042451e-07
9.39794871e-08
6.376511292e-08
4.388254636e-08
3.098134642e-08
2.277728666e-08
1.768014341e-08
1.459680684e-08
1.278903788e-08
1.17667287e-08
1.12112776e-08
1.092197431e-08
1.077763118e-08
1.07087211e-08
1.067742597e-08
1.066417243e-08
1.065926029e-08
1.065805812e-08
1.065842675e-08
1.065940888e-08
1.06605905e-08
1.066180005e-08
1.066297126e-08
1.066408194e-08
1.066512776e-08
1.066611096e-08
1.066703595e-08
1.06679075e-08
1.066873022e-08
1.066950825e-08
1.06702455e-08
1.067094541e-08
1.067161188e-08
1.067224984e-08
1.067286796e-08
1.067348209e-08
1.067412388e-08
1.06748538e-08
1.067577748e-08
1.067704441e-08
1.067882492e-08
1.068122286e-08
1.068411475e-08
1.068678608e-08
1.068682263e-08
0.1038207098
0.106633224
0.08961146855
0.06359658316
0.03815109549
0.01869301125
0.00677961441
0.001679456065
0.0001868448145
2.376487535e-05
4.322277513e-06
1.40318364e-06
6.812081179e-07
4.01107179e-07
2.563451055e-07
1.693706261e-07
1.135153217e-07
7.681604016e-08
5.252779729e-08
3.661989599e-08
2.638767057e-08
1.994053714e-08
1.597681497e-08
1.360772504e-08
1.223638938e-08
1.147063751e-08
1.105944368e-08
1.084749594e-08
1.074275242e-08
1.069327444e-08
1.06711659e-08
1.066211132e-08
1.065905426e-08
1.06586386e-08
1.065931988e-08
1.066041046e-08
1.066161542e-08
1.066281454e-08
1.066396305e-08
1.066504754e-08
1.066606698e-08
1.066702488e-08
1.0667926e-08
1.06687752e-08
1.066957702e-08
1.067033569e-08
1.067105526e-08
1.067174034e-08
1.067239711e-08
1.067303656e-08
1.067367815e-08
1.067435833e-08
1.067514323e-08
1.06761405e-08
1.067749193e-08
1.067934544e-08
1.068176835e-08
1.068459689e-08
1.068709738e-08
1.068674695e-08
0.1001534315
0.1074049997
0.09373761965
0.06700451895
0.03856702635
0.01777364042
0.00647178492
0.001913726596
0.000308366908
4.527759747e-05
7.206257287e-06
1.975081067e-06
8.779226161e-07
4.970435228e-07
3.11783872e-07
2.040995646e-07
1.3613787e-07
9.173473704e-08
6.234365777e-08
4.301757481e-08
3.048440252e-08
2.25168988e-08
1.756672946e-08
1.456795824e-08
1.280143993e-08
1.179288246e-08
1.12366946e-08
1.094123433e-08
1.079033629e-08
1.071642228e-08
1.068190992e-08
1.066681135e-08
1.066092968e-08
1.065925584e-08
1.065941311e-08
1.066031097e-08
1.066146625e-08
1.066267377e-08
1.066385175e-08
1.066497131e-08
1.066602538e-08
1.066701538e-08
1.066794554e-08
1.066882082e-08
1.066964606e-08
1.06704259e-08
1.067116506e-08
1.067186907e-08
1.067254558e-08
1.067320816e-08
1.067387994e-08
1.067460196e-08
1.067544461e-08
1.067651524e-08
1.067794609e-08
1.067986242e-08
1.068229788e-08
1.068505641e-08
1.068739179e-08
1.068668177e-08
0.09718135206
0.1064379897
0.09336479729
0.0639746857
0.03361171105
0.01427827402
0.005236899239
0.001758908116