/*--------------------------------*- C++ -*----------------------------------*\
  =========                 |
  \\      /  F ield         | OpenFOAM: The Open Source CFD Toolbox
   \\    /   O peration     | Website:  https://openfoam.org
    \\  /    A nd           | Version:  10
     \\/     M anipulation  |
\*---------------------------------------------------------------------------*/
FoamFile
{
    format      ascii;
    class       volScalarField;
    location    "0.02498436188";
    object      CO_0;
}
// * * * * * * * * * * * * * * * * * * * * * * * * * * * * * * * * * * * * * //

dimensions      [0 0 0 0 0 0 0];

internalField   nonuniform List<scalar> 
5170
(
2.541807961e-11
2.537255018e-11
2.507417155e-11
2.296902473e-11
1.804255563e-12
5.129300532e-11
5.115133264e-11
5.051838255e-11
4.728737772e-11
2.901624479e-11
7.698939606e-11
7.675593251e-11
7.583407961e-11
7.198724647e-11
5.682823989e-11
1.023564735e-10
1.020425767e-10
1.009073952e-10
9.682267983e-11
8.477580958e-11
1.273810732e-10
1.270011226e-10
1.257351766e-10
1.217151242e-10
1.127311486e-10
1.520699608e-10
1.516484074e-10
1.503355515e-10
1.466545884e-10
1.406930471e-10
1.764620559e-10
1.760202665e-10
1.747410944e-10
1.716639474e-10
1.686852511e-10
2.006173209e-10
2.001849765e-10
1.990157145e-10
1.96760404e-10
1.967432356e-10
2.245868058e-10
2.241877358e-10
2.232104863e-10
2.219882838e-10
2.249052066e-10
2.484193703e-10
2.48070929e-10
2.473403738e-10
2.473880318e-10
2.532077646e-10
2.721407801e-10
2.718619731e-10
2.714290326e-10
2.729771546e-10
2.816568816e-10
2.957538724e-10
2.955682278e-10
2.955368978e-10
2.987503198e-10
3.102238936e-10
3.192633245e-10
3.191945791e-10
3.196811435e-10
3.247047651e-10
3.38874714e-10
3.426692462e-10
3.427427649e-10
3.438520681e-10
3.508297007e-10
3.675706036e-10
3.659674878e-10
3.662140938e-10
3.680460166e-10
3.771003249e-10
3.962660124e-10
3.891483906e-10
3.89602614e-10
3.922930767e-10
4.035114435e-10
4.248838766e-10
4.122106016e-10
4.129107306e-10
4.165641372e-10
4.300078832e-10
4.534497541e-10
4.351654776e-10
4.361723688e-10
4.410693457e-10
4.576350156e-10
4.857465586e-10
4.607390196e-10
4.703384628e-10
5.39862643e-10
1.025428463e-09
2.710537925e-09
1.296407744e-09
5.037725379e-09
3.702291541e-08
2.595556833e-07
1.258970892e-06
0.002463397322
0.002459766324
0.002458751034
0.002457708022
0.002456628699
0.001562597135
0.001652924894
0.001651647165
0.001639514179
0.001501557189
0.001078851757
0.001193524873
0.00119330467
0.001150562251
0.0009966450015
0.0007988523424
0.0009112309281
0.000914416849
0.0008545382392
0.0007226487141
0.0006227031976
0.0007246532132
0.0007280057277
0.0006696908739
0.0005473496195
0.000521980645
0.0006014371639
0.0006090654699
0.0005506009076
0.0004536116465
0.0004391143057
0.0005195351981
0.0005268029418
0.0004795704006
0.000414054835
0.0004053271891
0.0004507943115
0.0004579753984
0.0004347208675
0.0003844922739
0.0003819291814
0.0004165491024
0.0004220169339
0.0004006619012
0.0003572607717
0.0003608241034
0.0003945074601
0.0003965318242
0.0003743768438
0.0003449236008
0.0003462596265
0.0003721083752
0.0003730765282
0.0003523085304
0.0003350385531
0.0003360574369
0.0003498718775
0.0003515470793
0.0003417787444
0.0003279290722
0.0003293472802
0.0003408716602
0.0003421231677
0.000333103293
0.0003211783479
0.0003235413025
0.0003329991767
0.0003336673404
0.0003262765439
0.0003147631375
0.0003177793983
0.000326816357
0.0003271817335
0.0003194011206
0.0003080601301
0.0003121797626
0.0003205036457
0.0003206093248
0.0003129123863
0.000301761991
0.0003061454693
0.000314270513
0.0003141189241
0.0003062442488
0.0002951464074
0.0003004302653
0.0003080021652
0.0003075018161
0.0002995184266
0.0002881152085
0.0003083534538
0.0003046398875
0.00030115837
0.0002928128581
0.0002805305323
0.001827963994
0.0005794011057
0.000341998744
0.0002927155647
0.0002753308266
3.14263041e-08
2.416783816e-07
3.724645842e-06
5.557626279e-05
0.0007446709814
1.788416594e-07
1.21665838e-06
1.505975129e-05
0.0001613549283
0.001279625209
6.314111153e-07
3.906816884e-06
4.02219873e-05
0.0003330389372
0.001843340043
1.765195553e-06
1.002611483e-05
8.845764801e-05
0.0005937773149
0.002518307681
4.333654786e-06
2.271091422e-05
0.0001743649405
0.0009610757271
0.00328405229
9.951167162e-06
4.86155401e-05
0.0003199097674
0.001432156215
0.004093777893
2.161422823e-05
9.793900954e-05
0.0005431869203
0.001994353679
0.004934374661
4.444667918e-05
0.0001843604893
0.0008564873234
0.002634892088
0.00580493024
8.755514337e-05
0.0003274521923
0.001268308895
0.003338877818
0.006689348185
0.0001662276333
0.0005501118873
0.001780863788
0.004100528265
0.007583957355
0.0003062952401
0.0008813519223
0.002394956832
0.004912814735
0.008481468343
0.0005593799428
0.001346888724
0.003101053563
0.005775774751
0.00939421625
0.0009947492317
0.001960193078
0.00390026116
0.006693391685
0.01033901677
0.001624576111
0.002717651731
0.004788497486
0.007660979305
0.01130615974
0.002522857208
0.003658353305
0.005789684718
0.008692505209
0.01230387193
0.003654659533
0.00477929579
0.006918509386
0.009810410467
0.01335446648
0.005066821897
0.006148883408
0.008241671673
0.01106636077
0.01449716565
0.006804841958
0.007804987147
0.009788879335
0.01249751371
0.01579428298
0.008737886327
0.009653131596
0.0115144124
0.01409404947
0.01724754395
0.01083238969
0.01165623675
0.01333408673
0.01563708843
0.01839387286
0.0129251133
0.01356765292
0.01484777535
0.01652876629
0.01841143517
0.01431344332
0.01464639661
0.01530430462
0.01613913889
0.017011461
0.01396368555
0.01407099453
0.01427094764
0.0144963507
0.01467907032
0.01222813126
0.01222670477
0.01220410816
0.01213570152
0.01199669086
0.009918467989
0.009880409674
0.009785419012
0.009628531048
0.009406681926
0.007634816218
0.007593467418
0.007497245608
0.007346539627
0.007143382992
0.005804704821
0.005771060998
0.005692721171
0.00557175256
0.00541165179
0.004358730107
0.004333439242
0.004274952292
0.0041853045
0.004067626786
0.003244913984
0.003226813552
0.003185106744
0.003121378222
0.003037989749
0.002397698071
0.002385161276
0.002356298607
0.002312224088
0.002254591241
0.001758473765
0.00175001228
0.00173050937
0.001700694911
0.001661676253
0.0012798679
0.00127428502
0.00126137622
0.001241597033
0.00121566712
0.0009251967964
0.0009215882117
0.0009132073638
0.0009003257011
0.0008834009683
0.0006666595127
0.0006643715603
0.0006590285713
0.0006507866896
0.0006399316942
0.0004827923932
0.000481362397
0.0004780054309
0.0004728085091
0.0004659464148
0.0003560975627
0.0003552064284
0.0003531064969
0.0003498460811
0.0003455300024
0.0002717636397
0.0002711980106
0.0002698653468
0.0002677934985
0.0002650443228
0.0002174220322
0.0002170461642
0.0002161657483
0.0002147986677
0.0002129811865
0.0001832655535
0.0001829973264
0.0001823764974
0.0001814163482
0.0001801383322
0.0001620138795
0.0001618063932
0.000161333242
0.0001606056771
0.0001596368099
0.0001486109751
0.0001484387095
0.0001480513343
0.0001474590789
0.0001466704293
0.0001397640461
0.0001396137832
0.0001392793904
0.0001387704136
0.0001380927908
0.0001334567847
0.0001333218465
0.0001330235772
0.000132570889
0.0001319682845
0.000128527088
0.0001284041126
0.0001281332787
0.0001277228768
0.0001271765552
0.0001243423969
0.0001242295201
0.0001239813974
0.0001236056836
0.0001231054721
0.0001205770027
0.0001204730588
0.0001202447602
0.000119899147
0.000119438914
0.000117071616
0.000116975736
0.0001167652087
0.0001164464927
0.0001160219698
0.0001137511666
0.0001136626302
0.0001134682289
0.0001131738898
0.0001127817356
0.0001105820274
0.000110500199
0.0001103205133
0.0001100484028
0.0001096857704
0.0001075483872
0.0001074726884
0.0001073064395
0.0001070546281
0.0001067189617
0.0001046415158
0.0001045714112
0.0001044174303
0.0001041841551
0.0001038731223
0.0001018561113
0.0001017911196
0.0001016483482
0.0001014320261
0.0001011435358
9.918669135e-05
9.912637252e-05
9.899385408e-05
9.879302888e-05
9.852514732e-05
9.662786239e-05
9.657181241e-05
9.644865996e-05
9.62620006e-05
9.60129655e-05
9.417415575e-05
9.412200845e-05
9.400742147e-05
9.383372047e-05
9.360193047e-05
9.182053431e-05
9.17719536e-05
9.166519538e-05
9.150334161e-05
9.128732337e-05
8.956247591e-05
8.951715138e-05
8.941754345e-05
8.92665133e-05
8.906490819e-05
8.739542162e-05
8.735306608e-05
8.725997918e-05
8.711882372e-05
8.693037338e-05
8.531372435e-05
8.52740774e-05
8.518694169e-05
8.505480045e-05
8.487836243e-05
8.330944629e-05
8.327227921e-05
8.319059135e-05
8.306670258e-05
8.29012635e-05
8.137264909e-05
8.133776711e-05
8.126109753e-05
8.114480962e-05
8.098950419e-05
7.949227614e-05
7.94595262e-05
7.938753465e-05
7.927832951e-05
7.913246554e-05
7.766040839e-05
7.762967645e-05
7.756211084e-05
7.745960654e-05
7.732267973e-05
7.587326977e-05
7.584443793e-05
7.578103642e-05
7.568483216e-05
7.555629969e-05
7.41328423e-05
7.410580981e-05
7.404635393e-05
7.395612249e-05
7.38355544e-05
7.244307575e-05
7.241772232e-05
7.236195067e-05
7.227729959e-05
7.216417535e-05
7.08140871e-05
7.07902952e-05
7.073795475e-05
7.06585036e-05
7.055231599e-05
6.924780533e-05
6.922541033e-05
6.917614323e-05
6.910135693e-05
6.900140156e-05
6.776892548e-05
6.774781405e-05
6.770137498e-05
6.763088181e-05
6.753665767e-05
6.650391981e-05
6.648384623e-05
6.643968997e-05
6.637266088e-05
6.628306216e-05
0.002713569473
0.003480786751
0.0042060545
0.005157656724
0.006165723535
0.007109350854
0.007999199177
0.008897818795
0.00978863878
0.0106631166
0.01151911688
0.01238726244
0.01329114498
0.01419884412
0.01512107596
0.01608048159
0.0171091613
0.01830036094
0.01965216882
0.02042859023
0.01969413092
0.01755361603
0.01475457292
0.0118673047
0.009234496201
0.006990113818
0.005293271101
0.003981294065
0.002977082368
0.002212646799
0.001633392027
0.001196967944
0.0008712763359
0.0006322145005
0.0004611018766
0.0003424932806
0.0002631016839
0.0002116769562
0.0001791970337
0.0001589009438
0.0001460545587
0.0001375526449
0.0001314815975
0.0001267319749
0.000122696751
0.000119062066
0.0001156739853
0.000112460098
0.0001093882384
0.0001064434774
0.0001036177924
0.0001009066568
9.830513765e-05
9.580838613e-05
9.341147304e-05
9.11097832e-05
8.889917467e-05
8.677541633e-05
8.473324855e-05
8.276516733e-05
8.08617307e-05
7.901245902e-05
7.721003979e-05
7.54505801e-05
7.373640189e-05
7.207115285e-05
7.046499065e-05
6.891919033e-05
6.74591415e-05
6.620933579e-05
0.00665960955
0.02382350357
0.003438137856
0.0005814771114
0.0001689076059
0.007939784292
0.02147825965
0.0147890347
0.002251926416
0.000489416281
0.008817171023
0.02006230273
0.03100493104
0.006078831325
0.001531155923
0.01029609339
0.02349821583
0.04698304755
0.01231897846
0.003350630526
0.01165267153
0.02471496656
0.04363978526
0.0193380567
0.005115553616
0.0126574876
0.02450352312
0.03892570209
0.02831157769
0.007900819618
0.01345304955
0.02425224649
0.0370097422
0.03843494006
0.01252660383
0.01426748191
0.02460560949
0.03741034393
0.04832531146
0.01883611028
0.01506469539
0.02497234438
0.03706397278
0.04850433681
0.02515210682
0.01581179764
0.02519147247
0.0362737992
0.04697175015
0.03187772884
0.01652140087
0.02542374528
0.03580674884
0.04623296786
0.03910485249
0.01725901859
0.02582915735
0.0358613615
0.04653235178
0.04699911368
0.01804424371
0.02631847947
0.03590841733
0.04615307689
0.05009074618
0.01881274997
0.0267211881
0.03570666361
0.04511218204
0.04989727469
0.01957488152
0.02709285134
0.03549507806
0.04424176768
0.04967146926
0.02036213331
0.02750862605
0.03543379986
0.04375719672
0.04993213729
0.02119040057
0.02795723301
0.03546457081
0.04348012328
0.05014072891
0.0221905919
0.02866154528
0.03586401826
0.04354941474
0.04960026737
0.02337504033
0.02968185404
0.03682668478
0.04450527599
0.04940328805
0.02353797498
0.02841615507
0.03332161121
0.03834022101
0.04407013354
0.02164239505
0.02409179825
0.02561465194
0.02578803856
0.0241145881
0.01841324818
0.01905303037
0.01877548143
0.01746762055
0.0151958793
0.01494355005
0.01468509876
0.01380868383
0.01238241539
0.01056552157
0.01175826347
0.01121479776
0.01031020495
0.009131959984
0.007801830016
0.009052235059
0.00851933471
0.007768875103
0.006874175568
0.005913546864
0.006819567706
0.006388779739
0.005823516857
0.00517661534
0.004498320847
0.005160503769
0.004838381182
0.004426303536
0.00396175353
0.003478148769
0.003884574215
0.003652861955
0.003358740481
0.003028346811
0.002684214384
0.002909426509
0.002746746037
0.00253985345
0.00230681185
0.002062956301
0.002166782545
0.002054815596
0.001911227926
0.001748400935
0.001576793592
0.001603196123
0.001527574701
0.001429292298
0.001316761645
0.001197096895
0.001177667077
0.001127540687
0.001061231428
0.0009844112346
0.0009018943965
0.0008593066824
0.0008267012049
0.0007826445787
0.0007309290378
0.0006747872206
0.0006249921705
0.0006041606133
0.0005753480096
0.0005410583285
0.0005034339113
0.0004568078512
0.0004436668692
0.000425073894
0.0004026505227
0.0003777884943
0.0003398995208
0.0003316050079
0.0003196656611
0.000305105277
0.0002888053289
0.0002614302013
0.0002560710525
0.0002483182387
0.00023880017
0.0002280601203
0.000210473013
0.0002068273732
0.0002016217814
0.0001952318243
0.0001879842034
0.00017821906
0.00017554869
0.0001718523555
0.0001673497476
0.0001622339814
0.0001580343988
0.0001559180433
0.0001531052954
0.000149723402
0.0001458861199
0.0001452527495
0.0001434627609
0.00014117384
0.0001384603556
0.0001353906639
0.0001368005099
0.0001352194966
0.000133256068
0.0001309553473
0.0001283602678
0.0001307762311
0.0001293454802
0.0001276015046
0.0001255736
0.000123290803
0.0001260733782
0.0001247628756
0.0001231820262
0.0001213515506
0.000119292802
0.0001220845048
0.0001208775689
0.0001194289852
0.0001177547143
0.0001158716223
0.0001184946079
0.0001173803715
0.0001160456431
0.0001145035157
0.0001127681122
0.0001151488287
0.0001141188635
0.0001128855028
0.0001114600085
0.0001098545696
0.000111974323
0.0001110215184
0.000109880144
0.0001085599776
0.0001070717209
0.0001089387939
0.0001080566951
0.0001069992636
0.000105775118
0.0001043937293
0.0001060273537
0.0001052099943
0.0001042293808
0.0001030931531
0.0001018097529
0.0001032321492
0.0001024740699
0.0001015638855
0.0001005084028
9.93151192e-05
0.0001005489024
9.984512934e-05
9.899953817e-05
9.801818386e-05
9.690773367e-05
9.797286597e-05
9.731879639e-05
9.653240512e-05
9.561908141e-05
9.458476477e-05
9.549941138e-05
9.489085078e-05
9.415873446e-05
9.330786055e-05
9.234352167e-05
9.312381062e-05
9.255693456e-05
9.187458725e-05
9.108104598e-05
9.018103426e-05
9.084160485e-05
9.031289174e-05
8.967616729e-05
8.893524681e-05
8.809434898e-05
8.86487914e-05
8.815499176e-05
8.756006716e-05
8.686742424e-05
8.608083541e-05
8.65412611e-05
8.607935889e-05
8.552268009e-05
8.487427026e-05
8.413750839e-05
8.451391152e-05
8.408117087e-05
8.355949504e-05
8.295161153e-05
8.226054997e-05
8.255942212e-05
8.215341033e-05
8.166381914e-05
8.109308906e-05
8.044395141e-05
8.066857604e-05
8.028726553e-05
7.982728853e-05
7.929085609e-05
7.86804544e-05
7.88311178e-05
7.847288704e-05
7.804051822e-05
7.753605537e-05
7.696176649e-05
7.703994962e-05
7.67035848e-05
7.629729136e-05
7.58229291e-05
7.528258733e-05
7.529108878e-05
7.497531767e-05
7.459357534e-05
7.414761119e-05
7.363934252e-05
7.358694973e-05
7.329071775e-05
7.293230052e-05
7.251332321e-05
7.203555071e-05
7.193103101e-05
7.165303437e-05
7.131645174e-05
7.092278031e-05
7.047363213e-05
7.033346496e-05
7.007240504e-05
6.975619717e-05
6.938616406e-05
6.896376833e-05
6.879534111e-05
6.854950517e-05
6.825171057e-05
6.790315877e-05
6.750519001e-05
6.734230155e-05
6.711048219e-05
6.682967929e-05
6.650100846e-05
6.612567258e-05
6.609817032e-05
6.58776276e-05
6.561050723e-05
6.529783685e-05
6.494073398e-05
2.052588267e-05
2.734287173e-06
4.766876509e-07
1.33582896e-07
5.796623403e-08
3.128210279e-08
1.925020003e-08
1.356125795e-08
1.092133393e-08
9.739946798e-09
9.229628923e-09
9.01377319e-09
8.922544776e-09
8.88316013e-09
8.865935305e-09
8.860198319e-09
8.855645189e-09
8.850267827e-09
8.848122583e-09
8.846881376e-09
8.845695333e-09
8.844484997e-09
8.843290125e-09
8.842146867e-09
8.841078554e-09
8.840102277e-09
8.839207456e-09
8.838376694e-09
8.837613615e-09
8.836924993e-09
8.836291311e-09
8.835694201e-09
8.835131699e-09
8.834606778e-09
8.834135248e-09
8.83371043e-09
8.833325981e-09
8.83297338e-09
8.832654458e-09
8.832362768e-09
8.832095367e-09
8.831850384e-09
8.831617429e-09
8.831386516e-09
8.831177257e-09
8.831021296e-09
8.830900854e-09
8.830806185e-09
8.830723778e-09
8.830659239e-09
8.830605631e-09
8.830568195e-09
8.830534366e-09
8.830500763e-09
8.830188039e-09
8.827490288e-09
8.809672168e-09
8.724990424e-09
8.423826114e-09
8.031290955e-09
9.771469272e-05
1.468790412e-05
1.962535344e-06
4.073104226e-07
1.483210974e-07
7.535586611e-08
4.612784102e-08
3.230581859e-08
2.545539414e-08
2.2079962e-08
2.045381972e-08
1.968559981e-08
1.932573626e-08
1.91557861e-08
1.907415431e-08
1.903622139e-08
1.901573249e-08
1.900257195e-08
1.899722466e-08
1.8994087e-08
1.899116746e-08
1.898814581e-08
1.898515588e-08
1.898232449e-08
1.897981541e-08
1.897758433e-08
1.897548817e-08
1.897357426e-08
1.897199858e-08
1.897067048e-08
1.896944336e-08
1.89682573e-08
1.896718905e-08
1.896636978e-08
1.89657879e-08
1.896528679e-08
1.896485772e-08
1.896442124e-08
1.896414313e-08
1.896381108e-08
1.896369596e-08
1.896371885e-08
1.896363009e-08
1.896358996e-08
1.896345931e-08
1.896348895e-08
1.89635122e-08
1.896371825e-08
1.896393474e-08
1.896415513e-08
1.896434943e-08
1.896463002e-08
1.896480637e-08
1.896513487e-08
1.896481135e-08
1.896174201e-08
1.894646484e-08
1.889758527e-08
1.882287463e-08
1.880627478e-08
0.0003584495013
4.997319005e-05
4.657769116e-06
7.170719346e-07
2.232689586e-07
1.084919617e-07
6.718629285e-08
4.816831221e-08
3.829364729e-08
3.301353433e-08
3.019967374e-08
2.872047779e-08
2.795329187e-08
2.755722771e-08
2.73513734e-08
2.724386217e-08
2.719030415e-08
2.716705469e-08
2.715786995e-08
2.71528446e-08
2.7148149e-08
2.714308051e-08
2.713796151e-08
2.713315647e-08
2.712885635e-08
2.71250289e-08
2.712165701e-08
2.711869288e-08
2.711609455e-08
2.711387742e-08
2.711198481e-08
2.711036369e-08
2.710910562e-08
2.710816853e-08
2.710743492e-08
2.71069313e-08
2.710666813e-08
2.710645181e-08
2.710632502e-08
2.710618762e-08
2.710631427e-08
2.710655775e-08
2.710685799e-08
2.710733863e-08
2.710780395e-08
2.710843441e-08
2.710900192e-08
2.710979584e-08
2.71105158e-08
2.711137423e-08
2.711217639e-08
2.711319476e-08
2.711398153e-08
2.711512228e-08
2.711573512e-08
2.71162589e-08
2.711753108e-08
2.713786147e-08
2.725825599e-08
2.743519526e-08
0.001161098074
0.0002644772717
2.714782801e-05
2.138591623e-06
3.889850162e-07
1.503303509e-07
8.68504747e-08
6.10530833e-08
4.814834195e-08
4.11509439e-08
3.723643362e-08
3.503198046e-08
3.379651526e-08
3.310906705e-08
3.272842636e-08
3.251847022e-08
3.241599266e-08
3.237939549e-08
3.236714894e-08
3.236284256e-08
3.235975779e-08
3.235628981e-08
3.235259295e-08
3.234907861e-08
3.234600127e-08
3.234334251e-08
3.234109351e-08
3.2339236e-08
3.233770803e-08
3.233651259e-08
3.233561609e-08
3.233497779e-08
3.233465109e-08
3.233459199e-08
3.233472647e-08
3.233510785e-08
3.233570048e-08
3.233633219e-08
3.233700388e-08
3.233770831e-08
3.233856308e-08
3.233947784e-08
3.234048367e-08
3.234162776e-08
3.234280941e-08
3.234410901e-08
3.234537193e-08
3.23467551e-08
3.234805181e-08
3.234951603e-08
3.23509374e-08
3.23525415e-08
3.235393567e-08
3.23557447e-08
3.23575766e-08
3.236193392e-08
3.237577104e-08
3.243054426e-08
3.259585101e-08
3.278069733e-08
0.002133873888
0.0007101868739
0.0001446952507
1.371828647e-05
1.474712711e-06
3.411362662e-07
1.429811177e-07
8.375912753e-08
5.959705134e-08
4.812498016e-08
4.221814045e-08
3.902527508e-08
3.724914669e-08
3.623869116e-08
3.565862166e-08
3.532683827e-08
3.516175433e-08
3.510258118e-08
3.508323349e-08
3.507899748e-08
3.507887377e-08
3.50792569e-08
3.507947955e-08
3.507966049e-08
3.507994791e-08
3.508037163e-08
3.50809398e-08
3.508164661e-08
3.508247357e-08
3.508342549e-08
3.508448327e-08
3.508563651e-08
3.508691411e-08
3.50883022e-08
3.508976417e-08
3.509133413e-08
3.509298335e-08
3.509461889e-08
3.509623118e-08
3.509784584e-08
3.509950034e-08
3.510114103e-08
3.510280767e-08
3.510451903e-08
3.510623481e-08
3.510799177e-08
3.51097235e-08
3.511147416e-08
3.511315618e-08
3.511493249e-08
3.511667657e-08
3.511852224e-08
3.51202477e-08
3.512232149e-08
3.512487202e-08
3.513071589e-08
3.514723298e-08
3.5198697e-08
3.532101493e-08
3.544064399e-08
0.003110538308
0.001392413757
0.0004632848277
8.649117955e-05
8.355717852e-06
1.178187473e-06
3.225024225e-07
1.391756919e-07
8.032548676e-08
5.700610361e-08
4.668892584e-08
4.176626856e-08
3.925077011e-08
3.788131602e-08
3.709977977e-08
3.664497238e-08
3.640887416e-08
3.631402646e-08
3.627788278e-08
3.626801745e-08
3.626798193e-08
3.627094868e-08
3.627458361e-08
3.627823799e-08
3.628174254e-08
3.628508269e-08
3.6288283e-08
3.629135778e-08
3.629431664e-08
3.629718367e-08
3.629995831e-08
3.630265182e-08
3.630528883e-08
3.630787663e-08
3.631040405e-08
3.631289469e-08
3.631534067e-08
3.631771381e-08
3.63200137e-08
3.632226109e-08
3.632446999e-08
3.632661346e-08
3.632871628e-08
3.633078116e-08
3.633279339e-08
3.633477952e-08
3.633672968e-08
3.633865256e-08
3.634050826e-08
3.634236398e-08
3.634417075e-08
3.634600942e-08
3.634779705e-08
3.634985643e-08
3.635256854e-08
3.63581239e-08
3.637178338e-08
3.640690179e-08
3.647610636e-08
3.65369704e-08
0.003915367959
0.002013417294
0.0009326175564
0.000312232616
5.011985505e-05
5.03852394e-06
8.810934438e-07
2.746554117e-07
1.238843015e-07
7.283345247e-08
5.29543201e-08
4.4573394e-08
4.076739858e-08
3.888003539e-08
3.785745908e-08
3.726737921e-08
3.694951357e-08
3.680570856e-08
3.674149465e-08
3.671784456e-08
3.671273548e-08
3.671522748e-08
3.672044522e-08
3.672635986e-08
3.673217665e-08
3.673765001e-08
3.674274791e-08
3.674750034e-08
3.675194805e-08
3.675612602e-08
3.676005967e-08
3.676377825e-08
3.67673091e-08
3.677067382e-08
3.677388309e-08
3.677695646e-08
3.677990262e-08
3.6782723e-08
3.678542578e-08
3.678802568e-08
3.679053248e-08
3.679294096e-08
3.679526573e-08
3.679750975e-08
3.679966979e-08
3.680175864e-08
3.680377958e-08
3.680574457e-08
3.680764189e-08
3.680949142e-08
3.681127965e-08
3.681305652e-08
3.681482079e-08
3.681682031e-08
3.681950349e-08
3.682443524e-08
3.683482577e-08
3.685670665e-08
3.689262321e-08
3.692068652e-08
0.005041806264
0.002549959057
0.00144876638
0.0007008790104
0.0002115341804
2.568626994e-05
2.916598697e-06
6.308343817e-07
2.183157108e-07
1.034599231e-07
6.377561999e-08
4.867579234e-08
4.251984971e-08
3.977513693e-08
3.84033983e-08
3.764276657e-08
3.722752693e-08
3.702331515e-08
3.692119571e-08
3.687562433e-08
3.685951041e-08
3.685768218e-08
3.686216491e-08
3.686896449e-08
3.687621034e-08
3.68831502e-08
3.688957329e-08
3.689548078e-08
3.690093132e-08
3.690598134e-08
3.691067655e-08
3.69150584e-08
3.691916312e-08
3.692302327e-08
3.692666325e-08
3.693010671e-08
3.693337154e-08
3.693647144e-08
3.693942022e-08
3.694223155e-08
3.694491623e-08
3.694747934e-08
3.694993199e-08
3.695228186e-08
3.695453347e-08
3.695669354e-08
3.695876419e-08
3.696075534e-08
3.696266955e-08
3.696451718e-08
3.696630279e-08
3.696806321e-08
3.69698428e-08
3.697186844e-08
3.697461021e-08
3.697927039e-08
3.698781795e-08
3.700277934e-08
3.702338633e-08
3.703705128e-08
0.006959717141
0.002983127312
0.001869853107
0.001125471573
0.0005431777272
0.0001187138466
1.144013378e-05
1.651268789e-06
4.318518839e-07
1.635004768e-07
8.289046104e-08
5.521307216e-08
4.499197739e-08
4.087232267e-08
3.898410433e-08
3.799060325e-08
3.744905859e-08
3.716813608e-08
3.701739099e-08
3.694187307e-08
3.690865152e-08
3.68982292e-08
3.689930496e-08
3.690549067e-08
3.691337369e-08
3.692134131e-08
3.692879267e-08
3.693560761e-08
3.694183521e-08
3.6947552e-08
3.695282421e-08
3.695770525e-08
3.696224106e-08
3.696647322e-08
3.69704356e-08
3.697415839e-08
3.697766581e-08
3.698097828e-08
3.698411339e-08
3.69870868e-08
3.698991171e-08
3.699259832e-08
3.699515772e-08
3.699759919e-08
3.699993082e-08
3.700216036e-08
3.700429239e-08
3.700633381e-08
3.700828963e-08
3.701016904e-08
3.701198598e-08
3.701378069e-08
3.701563054e-08
3.701777305e-08
3.70207117e-08
3.702546875e-08
3.703339553e-08
3.704559066e-08
3.706028641e-08
3.706819299e-08
0.01007842753
0.003498950006
0.002238177976
0.001494725709
0.0008915404
0.000341623578
4.569109084e-05
4.509862938e-06
8.717085041e-07
2.671353087e-07
1.126176017e-07
6.467568425e-08
4.838372011e-08
4.23189036e-08
3.972449679e-08
3.8417733e-08
3.770739029e-08
3.732488604e-08
3.710993855e-08
3.699410462e-08
3.693655675e-08
3.691252865e-08
3.690693445e-08
3.691060663e-08
3.69181654e-08
3.692674136e-08
3.693505335e-08
3.6942694e-08
3.694963598e-08
3.695596095e-08
3.696175565e-08
3.696708835e-08
3.697201535e-08
3.697658578e-08
3.698084197e-08
3.698482042e-08
3.698855153e-08
3.699206064e-08
3.699536927e-08
3.699849594e-08
3.700145656e-08
3.700426462e-08
3.700693247e-08
3.700947078e-08
3.701188874e-08
3.701419496e-08
3.701639639e-08
3.701850083e-08
3.702051524e-08
3.702244961e-08
3.702432257e-08
3.702618364e-08
3.702813907e-08
3.703045894e-08
3.703368398e-08
3.703873786e-08
3.704665676e-08
3.705792063e-08
3.707038711e-08
3.707569662e-08
0.01443429142
0.004438856719
0.002578244399
0.001865334549
0.001246288267
0.0006345300468
0.0001342517397
1.282049005e-05
1.792163525e-06
4.359753222e-07
1.537935765e-07
7.657455628e-08
5.249764084e-08
4.410081904e-08
4.066675053e-08
3.897423198e-08
3.804763155e-08
3.753208556e-08
3.723201431e-08
3.706194113e-08
3.697070876e-08
3.692674883e-08
3.691030379e-08
3.690889347e-08
3.691474e-08
3.692330501e-08
3.693227329e-08
3.694070705e-08
3.69483755e-08
3.695532023e-08
3.696164205e-08
3.696742864e-08
3.697274902e-08
3.697766014e-08
3.698221184e-08
3.698644718e-08
3.699040274e-08
3.699410898e-08
3.699759164e-08
3.700087259e-08
3.700397048e-08
3.700690136e-08
3.700967916e-08
3.701231621e-08
3.701482294e-08
3.701720924e-08
3.701948334e-08
3.702165406e-08
3.702373077e-08
3.702572715e-08
3.702766796e-08
3.702961538e-08
3.703170326e-08
3.703423912e-08
3.703779112e-08
3.704320959e-08
3.705132353e-08
3.706226314e-08
3.70736813e-08
3.707736216e-08
0.01997681373
0.006030148797
0.0029225727
0.002256444704
0.001610045496
0.000938816584
0.000299204141
3.452731727e-05
3.98320164e-06
7.3745902e-07
2.114199262e-07
9.078811027e-08
5.714559517e-08
4.617558201e-08
4.18202305e-08
3.968079784e-08
3.849141851e-08
3.78089948e-08
3.739971283e-08
3.715872608e-08
3.702237998e-08
3.69507014e-08
3.691817097e-08
3.690829891e-08
3.691044401e-08
3.691799622e-08
3.692722907e-08
3.69363684e-08
3.694478439e-08
3.695238649e-08
3.695926307e-08
3.696552209e-08
3.697125005e-08
3.697651421e-08
3.698137167e-08
3.698587211e-08
3.699005831e-08
3.699396643e-08
3.699762671e-08
3.700106476e-08
3.70043022e-08
3.700735748e-08
3.701024642e-08
3.701298303e-08
3.701557926e-08
3.701804668e-08
3.702039465e-08
3.702263339e-08
3.702477434e-08
3.702683554e-08
3.702885043e-08
3.70308975e-08
3.703313972e-08
3.703591767e-08
3.703980721e-08
3.704558836e-08
3.705391941e-08
3.706467483e-08
3.707537445e-08
3.707766512e-08
0.02569632916
0.008361465068
0.003446317625
0.002733430898
0.002043292498
0.001273851177
0.0005066916595
8.37383736e-05
8.396579888e-06
1.246307706e-06
2.848388635e-07
1.055491132e-07
6.181982581e-08
4.843025786e-08
4.315961363e-08
4.053175752e-08
3.90396236e-08
3.815986339e-08
3.761878806e-08
3.729019156e-08
3.709677531e-08
3.698893263e-08
3.693443234e-08
3.691209354e-08
3.690796576e-08
3.691303013e-08
3.692182351e-08
3.693142257e-08
3.694055313e-08
3.694884463e-08
3.695631038e-08
3.696306524e-08
3.696921688e-08
3.697484741e-08
3.69800222e-08
3.698479754e-08
3.698922224e-08
3.699333832e-08
3.699718078e-08
3.700077928e-08
3.700415858e-08
3.700733971e-08
3.701034066e-08
3.701317731e-08
3.701586347e-08
3.70184122e-08
3.702083417e-08
3.70231413e-08
3.70253476e-08
3.702747685e-08
3.702957309e-08
3.703173203e-08
3.703414529e-08
3.703718022e-08
3.704140272e-08
3.704751727e-08
3.705602677e-08
3.706659777e-08
3.707666067e-08
3.707752652e-08
0.03137260868
0.01147643831
0.004304929797
0.003239631582
0.002558653731
0.00164850005
0.0007443191516
0.0001729557409
1.72186634e-05
2.166193611e-06
3.944577917e-07
1.240483318e-07
6.722500288e-08
5.102498256e-08
4.471237412e-08
4.152494506e-08
3.968639162e-08
3.858071781e-08
3.788758284e-08
3.74565748e-08
3.719519053e-08
3.704325737e-08
3.696103437e-08
3.692210461e-08
3.690883394e-08
3.690955685e-08
3.691686375e-08
3.692644256e-08
3.693613417e-08
3.694510312e-08
3.695318326e-08
3.696045653e-08
3.696704637e-08
3.69730535e-08
3.697855441e-08
3.698361224e-08
3.698828175e-08
3.699261055e-08
3.699663868e-08
3.700039995e-08
3.700392251e-08
3.70072303e-08
3.701034376e-08
3.701328084e-08
3.701605712e-08
3.701868693e-08
3.702118269e-08
3.70235584e-08
3.702583148e-08
3.702803306e-08
3.703021917e-08
3.703250291e-08
3.703510172e-08
3.703840091e-08
3.704294496e-08
3.704935682e-08
3.705799424e-08
3.706835244e-08
3.707779374e-08
3.707713449e-08
0.03722069297
0.01538985471
0.005674189262
0.003828267144
0.003152178922
0.002009599546
0.0009476401059
0.0002889174942
3.490114692e-05
4.064800958e-06
5.694423004e-07
1.467739941e-07
7.346657902e-08
5.407942325e-08
4.653308297e-08
4.26762326e-08
4.043302579e-08
3.906795813e-08
3.820230964e-08
3.765526828e-08
3.731643462e-08
3.711349752e-08
3.699850848e-08
3.693926425e-08
3.691408676e-08
3.690848712e-08
3.691301344e-08
3.692184689e-08
3.6931774e-08
3.69413181e-08
3.695000193e-08
3.695780444e-08
3.696484145e-08
3.697123071e-08
3.697706242e-08
3.698240725e-08
3.698732544e-08
3.699186966e-08
3.699608516e-08
3.700001003e-08
3.700367612e-08
3.700711056e-08
3.701033636e-08
3.70133735e-08
3.701623929e-08
3.701894951e-08
3.702151874e-08
3.702396376e-08
3.702630631e-08
3.702858601e-08
3.703087198e-08
3.703329455e-08
3.703609217e-08
3.70396576e-08
3.70445068e-08
3.705117872e-08
3.705989578e-08
3.7070015e-08
3.707884901e-08
3.707671393e-08
0.04318256495
0.01986907127
0.007497973568
0.004705728702
0.003816840359
0.002281872691
0.0010613397
0.0003781623517
6.289659774e-05
7.853974252e-06
8.888946165e-07