/*--------------------------------*- C++ -*----------------------------------*\
  =========                 |
  \\      /  F ield         | OpenFOAM: The Open Source CFD Toolbox
   \\    /   O peration     | Website:  https://openfoam.org
    \\  /    A nd           | Version:  10
     \\/     M anipulation  |
\*---------------------------------------------------------------------------*/
FoamFile
{
    format      ascii;
    class       volScalarField;
    location    "0.02498436188";
    object      ddt0(rho,CH4);
}
// * * * * * * * * * * * * * * * * * * * * * * * * * * * * * * * * * * * * * //

dimensions      [1 -3 -1 0 0 0 0];

internalField   nonuniform List<scalar> 
5170
(
0.1549311089
-0.1127148914
-0.06199015614
0.05067815428
-0.08091128018
-0.03011348204
-0.03794401588
-0.02906540199
-0.03844501443
-0.03230478864
-0.0367123281
-0.03035298525
-0.03352779595
-0.03277488866
-0.03255335357
-0.03472189206
-0.03053067968
-0.03308636525
-0.03178326119
-0.03228160963
-0.03278711356
-0.03129315643
-0.03247367785
-0.03157715452
-0.03191441998
-0.02968417187
-0.02984313106
-0.02974186097
-0.02964944326
-0.02950115693
-0.03213395262
-0.02899032445
-0.03159663563
-0.02906348798
-0.03108282168
-0.02706866574
-0.03089391972
-0.0296297768
-0.02870811107
-0.02942788632
-0.02009615675
-0.0211679587
-0.02539310188
-0.02069701546
-0.02107781286
-0.0206491563
-0.02037710004
-0.0170856926
-0.02076609713
-0.02082568419
-0.02241188282
-0.02299109517
-0.01823164477
-0.0227751295
-0.02380921998
-0.01616739393
-0.01667250659
-0.01744090567
-0.0165494161
-0.0176832532
-0.01020291192
-0.01339649364
-0.0143751259
-0.0124103607
-0.01195017946
-0.00905420446
-0.009726849255
-0.01116853475
-0.009299335925
-0.009867929926
-0.008823072197
-0.008568247325
-0.0081140525
-0.008785975796
-0.009229260692
-0.007511257452
-0.009283337086
-0.006723960246
-0.00929515641
-0.008224447236
-0.008189704482
-0.008028983472
-0.0071627224
-0.007603223269
-0.007312768643
-0.005472081332
-0.00627500783
-0.007648307278
-0.004894574697
-0.006580107707
-0.006155096245
-0.008474768953
0.006178372207
-0.02126247273
0.003005906956
-0.007444649509
-0.02168783095
-0.008882513024
-0.003955641687
-0.01828877522
-2.026605742e-16
1.608401477e-16
2.063370572e-16
2.081928567e-16
2.020619239e-16
-1.915065274e-16
3.132873774e-16
-5.663191791e-17
-8.807630222e-17
-3.780362893e-17
-1.644366339e-16
-5.211716049e-17
5.699755187e-17
6.333189457e-17
1.844722634e-17
1.057561642e-15
-1.113221666e-16
-4.067878786e-17
-8.714003121e-16
5.871518468e-15
-3.080736752e-12
1.901214901e-13
3.829915312e-14
-1.31897973e-12
7.45969126e-11
8.897058373e-09
-1.892492092e-10
1.894645514e-11
1.036856516e-11
-1.093438109e-08
7.407459327e-09
1.259600863e-10
1.273419033e-09
3.016142269e-09
7.927360927e-08
-5.933686857e-08
-7.113525727e-09
3.448943394e-10
1.198990398e-09
-4.782538322e-08
-4.394999129e-08
-5.470449354e-08
-8.782039944e-08
-7.427911906e-08
-2.030440726e-08
-6.563610551e-09
-1.753808649e-08
2.409055862e-09
2.615968242e-08
8.286971361e-08
8.670625005e-08
-3.580132558e-08
4.709069164e-09
7.036018996e-09
-2.016169463e-06
-1.389717447e-07
9.138590248e-08
-1.667360258e-07
5.065742366e-07
-2.663644864e-07
-6.319515288e-06
1.238956133e-07
-1.883891973e-07
2.103212561e-07
1.438123182e-08
-8.394199813e-10
-1.427575939e-07
-3.122885636e-07
-1.10564262e-08
-5.171552104e-09
-2.086462252e-07
-4.823127246e-07
-1.157270362e-07
-3.96771284e-10
1.235489943e-08
3.91544134e-07
4.503252315e-09
-5.06073309e-07
-6.908887748e-08
-1.136440266e-07
1.391570855e-06
4.021169955e-07
8.414318551e-07
1.945123633e-06
-2.022832853e-07
-3.425404484e-06
1.3551671e-07
3.32725813e-07
3.930417113e-08
-7.967817041e-08
0.0001712151932
9.126703173e-05
-6.838414797e-06
-3.494145778e-06
-9.724961734e-08
9.863178097e-05
-5.077712496e-05
-0.0001678364547
-4.347492899e-05
3.164462402e-06
-0.4023745221
0.204799177
-0.0682443325
-0.05937865679
0.5003811933
0.5187263619
-0.5835847366
0.1154264295
0.1350990699
-0.429812189
-0.1182448303
0.1491801488
0.257907204
-0.1279985757
-0.08459545692
-0.6839840412
0.246629411
-0.3298165659
-0.3605635083
-0.704969747
-0.03995323175
0.02854546793
-0.265627429
-0.4884278983
-0.4049785452
0.0226627588
0.1308975476
0.1940047531
-0.1460309
-0.2863700161
0.1838450412
-0.05119034787
0.4679360344
-0.08698695224
0.1917299163
0.5200442692
0.03883348737
-0.08846070096
0.1646036976
0.2373385866
0.7190377743
-0.3141464078
-0.3140480404
0.1863576457
0.142972526
-0.2943436804
-0.04977246923
0.1172418194
0.1103693783
0.107388609
0.02630427979
0.2576542341
0.2887322981
0.1728695853
0.131336527
1.560935873
0.9842935477
0.5136147043
0.1873904309
0.1375913957
0.7635122486
0.5997628432
0.3787428579
0.1263306813
-0.01786802895
-0.3773289525
-0.03619941307
0.0231392084
-0.006013406822
-0.08549973228
-0.3938702401
-0.4035960744
-0.22720155
-0.2417183261
-0.2674516117
-1.206576683
-0.6973671011
-0.2557752582
-0.07824037441
-0.0229432316
-0.2553814941
-0.1762758443
-0.1348416141
-0.0934036557
-0.08482581871
0.224038016
0.1529178011
0.1261636287
0.1742328098
0.2466528888
0.02683735923
0.2149650308
0.3938912314
0.519490381
0.615931352
0.6213897875
0.7183354338
0.6505806229
0.4702905295
0.2006217818
1.729369595
1.471683892
0.9428752909
0.1988923173
-0.6279250753
1.100950646
0.7132282539
0.04846532928
-0.745042294
-1.509647073
-0.5542425333
-0.7336726638
-1.137884564
-1.63829139
-2.152395476
-1.653598288
-1.732316693
-1.924528878
-2.180979371
-2.506701889
-2.195555991
-2.227329305
-2.329817052
-2.470562952
-2.585972426
-2.322514528
-2.34044948
-2.368890939
-2.421802575
-2.459935096
-2.155187682
-2.149807941
-2.159183742
-2.170957446
-2.148811326
-1.813706055
-1.837140153
-1.817978045
-1.809658044
-1.798904854
-1.451450781
-1.464042671
-1.442973314
-1.43029733
-1.417856285
-1.107924915
-1.095216616
-1.087805567
-1.075935199
-1.048375491
-0.7755302007
-0.7824748742
-0.7686228785
-0.7626104482
-0.7372211064
-0.5104547906
-0.5062261778
-0.5042762691
-0.4915371058
-0.4989710767
-0.2797874983
-0.2901528677
-0.2862516007
-0.2757612891
-0.2834844687
-0.1204376817
-0.1228351421
-0.115986766
-0.1152719152
-0.1243922864
-0.006627841451
-0.007570313649
-0.007095316964
-0.006536665849
-0.004003554703
0.05806095845
0.05407343122
0.05258507528
0.05876115487
0.0496521793
0.07755982817
0.0793451944
0.07725687736
0.07794436987
0.07586024268
0.07569846204
0.07832724638
0.07524290717
0.0776090786
0.07050156163
0.07001791297
0.06095909344
0.0620643015
0.06494678885
0.06567208127
0.04386445407
0.04831605261
0.0491245362
0.04451397612
0.04942795762
0.03187314335
0.03380720788
0.0329670379
0.03229749196
0.03253592056
0.02336501902
0.02201362843
0.02140058652
0.02302691316
0.01918361947
0.012076278
0.01582853547
0.01482834985
0.01486893394
0.01096968414
0.009368173298
0.01020168202
0.01003736231
0.01056701497
0.006181780699
0.005547995792
0.007846410485
0.007478991586
0.006956061447
0.006206909161
0.00570193023
0.005395677685
0.005463888539
0.005595112891
0.00663891409
0.003539525205
0.004776156223
0.004726672555
0.00459211987
0.004597540119
0.003137165814
0.004093053758
0.004267247092
0.0039553324
0.002727427498
0.002785262565
0.003854001683
0.003661739399
0.003787300548
0.001379251401
0.003010214101
0.003403536329
0.003486118719
0.003022249191
0.002736004754
0.003345337166
0.002830199614
0.003130746396
0.003104450447
0.003197936652
0.003300547788
0.002860090754
0.002588457676
0.002920670537
0.0048572962
0.001316654751
0.003039833659
0.003323551837
0.002070113341
0.004022788647
0.003061076025
0.002505535269
0.002632961817
0.002819415896
0.00118277152
0.001399989946
0.00326207508
0.00217514525
0.002806286063
0.002456205295
0.001615294442
0.002830120335
0.002548317867
0.002363102948
0.002379080593
0.002874567805
0.002290223892
0.002433737574
0.002049755705
0.004502190767
0.002659730334
0.00228229509
0.00234281256
0.002098476891
0.004227205839
0.002489003766
0.002282237934
0.002213255409
0.002165772086
0.003949897923
0.002170693964
0.002304402433
0.002262450821
0.002039837555
0.003525029134
0.002211814402
0.002230021148
0.002209379781
0.001974546751
0.003162317757
0.002384773537
0.002200000883
0.001990444253
0.001945860302
0.003078794608
0.002187954256
0.002084635734
0.00191663711
0.001865857149
0.003791773097
0.001791738781
0.002028550052
0.00202439023
0.001637207459
0.00331198001
0.002040740307
0.001670481151
0.002006887194
0.001745230392
0.002109272268
0.001585019798
0.001863174753
0.001785921516
0.001714643365
0.001954638693
0.001713983532
0.001710588274
0.001665989702
0.001742443283
0.001920692717
0.001545093836
0.001724930277
0.001624020959
0.001663498812
0.001643336174
0.0015856831
0.001626554014
0.001535195627
0.00165057378
0.001543747453
0.00142603209
0.001520637393
0.001493094702
0.00149456264
0.001400764319
-1.307564138
0.9572093778
1.213626657
0.4099113579
-0.3034664568
-0.07957608368
0.182294344
0.2327718028
0.09829201601
0.06286642541
0.07716126631
0.06973219347
0.1463551428
-0.07130824759
-0.1823110271
-0.3195338519
0.03423557736
0.3020453963
0.801789895
-0.08263439639
-1.097835361
-1.993504505
-2.516014255
-2.651602358
-2.81516709
-2.519280265
-2.228033417
-1.765415285
-1.371368782
-1.065545267
-0.765585623
-0.4314198341
-0.240206197
-0.07149403524
-0.006692766525
0.06924870495
0.08265798353
0.09310030432
0.04689917054
0.04014489306
0.03434826537
0.03122603058
0.02781352089
0.02352744852
0.01093374167
0.0007498963057
0.003521358802
0.008199677001
0.01129960548
0.005730816587
0.002215845872
-0.004942048159
-0.001406507447
0.00794330768
0.002384477375
0.003054813319
-0.004970135024
-0.004383077233
-0.003716806245
-0.002197977094
-0.001189491635
-0.001138208839
-0.004414577507
-0.002770365778
0.001055737152
0.001184754173
0.000826138532
0.001765231127
0.001744780534
0.001864165013
0.5061504346
-0.03212199547
0.0001969669207
-2.511090851e-05
9.05559313e-07
-0.0596573161
-0.2240245785
-0.002693904194
-0.0003202597222
-9.806247816e-06
0.1893359174
0.1766928025
0.2403512804
0.00226932151
0.0001455104759
-0.004569226504
-0.02233414187
-0.08617561951
-0.002087198957
0.0001832303307
-0.1317100538
-0.02978354294
0.07349565733
-0.01045754707
-0.0003174753002
-0.0347686418
0.01268567798
0.03041511392
-0.006163329144
-0.0006487484556
0.156428211
0.1594971019
0.02765814862
0.007910552574
0.004845598565
0.2561892515
0.1861158316
0.0295496351
0.01927589407
0.005087760028
0.114088817
0.09795024322
0.0258546047
-0.007722676667
-0.006319323429
0.01700973419
-0.06226909366
-0.01996059541
-0.05242023132
-0.008931704061
0.02884642814
-0.03892905667
-0.02640419449
0.08458041858
-0.003732059859
0.08864851331
0.05550201872
0.05800188874
-0.003636624264
0.03179924751
0.06663877078
0.07782673863
-0.01647120757
0.003187091685
0.007385213673
-0.1231080947
-0.06125338016
-0.06251850327
-0.05995583496
-0.02103459474
-0.1544290766
-0.06454514155
-0.05801099656
-0.07061464185
-0.08959256738
-0.1784164121
-0.1631797048
-0.03762287506
-0.07211288799
-0.1133732985
-0.0322269132
-0.03271726659
-0.02033843935
0.08574962807
0.08622708485
0.3480573305
0.5237577922
0.7307158544
0.8522153541
0.6955369066
0.7372626005
0.9293581317
1.125564536
1.204397074
0.9586801798
-0.384059036
-1.165267019
-2.608544132
-5.389934504
-8.483261838
-1.692095081
-2.615454974
-3.7509599
-5.349329686
-7.105285756
-2.576378145
-3.374292121
-4.081140348
-4.810799098
-5.514276138
-2.90027242
-3.488736001
-3.998567396
-4.36311585
-4.550873227
-2.99525826
-3.361619895
-3.621151265
-3.755434878
-3.738892368
-2.851814582
-3.031121122
-3.12292929
-3.118661488
-3.009197474
-2.555690841
-2.604444895
-2.58929762
-2.509016249
-2.365031415
-2.178154228
-2.168310919
-2.103185197
-1.998328608
-1.854817816
-1.778463707
-1.735439756
-1.660906618
-1.555762859
-1.431319095
-1.385917678
-1.34061077
-1.270770169
-1.18353404
-1.082198612
-1.029964737
-0.994878647
-0.939949973
-0.8720506706
-0.7964862743
-0.7260914741
-0.7018152571
-0.6619848653
-0.6126937015
-0.5590055268
-0.4782360532
-0.4569166144
-0.4296912659
-0.3967932196
-0.3593423557
-0.2701782742
-0.2583812099
-0.2409395968
-0.2204632351
-0.195715403
-0.1149571574
-0.1058047136
-0.09849357363
-0.08478357917
-0.07209468697
-0.004996219885
-0.004576705653
-9.918129283e-05
0.004863369788
0.01142288069
0.05228822341
0.05352192036
0.05309998146
0.05516413192
0.05602355777
0.07553714283
0.07424990525
0.07425198566
0.07212207765
0.07212661829
0.07324557777
0.07352808979
0.07205137224
0.07054869881
0.068403409
0.06324092341
0.06156831292
0.05945124864
0.05882512914
0.05612178221
0.04699513055
0.04602915836
0.04493748434
0.04384286533
0.04232016395
0.03249048656
0.03197168859
0.0320742788
0.03045016308
0.02989844005
0.02115868956
0.02171144128
0.02154907206
0.02067123166
0.02022111041
0.01354144083
0.01462672877
0.0141624265
0.01410127854
0.01334472659
0.008809809231
0.01000200196
0.009756182018
0.009474827091
0.009245534071
0.00684638144
0.007109537039
0.006966973381
0.006819424588
0.006593890195
0.005802274433
0.005530118367
0.005146195453
0.005393646957
0.004902738171
0.004525423613
0.004644098326
0.004093277998
0.004472333405
0.004003512586
0.003518768808
0.003958411081
0.003610795758
0.003849355008
0.003437449999
0.002849124787
0.003509845439
0.003374175944
0.003289519939
0.003216526388
0.003033319562
0.003101225165
0.003243202828
0.002886621822
0.003041586248
0.003023879369
0.003008650449
0.002890904776
0.00281295309
0.002758511521
0.003481681456
0.002799550622
0.002725034394
0.002709218836
0.002599850373
0.003034025524
0.002710398935
0.002562811713
0.002661984255
0.002440629912
0.002170508436
0.002587565717
0.002570484999
0.002456674728
0.002448133388
0.002538836737
0.002525065998
0.002442153792
0.002451417873
0.002337613836
0.00238052481
0.002473344101
0.002375845626
0.002397592024
0.002290493941
0.00301921439
0.002326287873
0.00238163441
0.00230997565
0.00226171527
0.002903561034
0.002295533406
0.002328792085
0.002257269436
0.002232851057
0.002783834808
0.002259817184
0.002264544201
0.002240870528
0.002169611992
0.002575283523
0.002244289083
0.002204885555
0.002167232004
0.002158182599
0.002473900825
0.002148224161
0.002159444413
0.002136792056
0.002082540999
0.002423946513
0.002027735299
0.002150054804
0.002047270557
0.002033810617
0.00258660763
0.001999820624
0.002017006648
0.002015035408
0.001954558619
0.002344488496
0.001924319036
0.001939646142
0.001921901336
0.001888504738
0.00191989621
0.001857043817
0.001850233976
0.001835527062
0.001811499928
0.001825430929
0.001777329985
0.001776211984
0.001752784375
0.001742374873
0.001783773341
0.00172668637
0.001702629111
0.001706756717
0.001684324081
0.001649528683
0.0016884477
0.001658612436
0.001686875346
0.001653810463
0.001600333221
0.001632019835
0.001627107947
0.001644173602
0.001635183757
0.001478175554
0.001516226165
0.001524193684
0.001528976138
0.001533078612
-3.786829449e-06
-5.314103468e-07
-8.451791154e-07
-1.182868386e-06
-1.259412479e-06
1.317537881e-06
1.319990348e-06
-1.2796328e-06
-1.281054956e-06
1.319561057e-06
1.319674336e-06
-1.279636917e-06
-1.270417721e-06
-1.269448942e-06
-1.269446511e-06
-1.269626693e-06
-1.27073851e-06
-9.546883863e-07
-4.62141303e-07
-2.19670136e-07
-1.025759731e-07
-4.707367475e-08
-2.123874289e-08
-9.424046528e-09
-4.113601387e-09
-1.766770756e-09
-7.467718929e-10
-3.106723421e-10
-1.27222208e-10
-5.128505502e-11
-2.035131343e-11
-7.949861883e-12
-3.056828341e-12
-1.15689526e-12
-4.309089987e-13
-1.579406398e-13
-5.695869677e-14
-2.020780794e-14
-7.0518311e-15
-2.420103487e-15
-8.166481577e-16
-2.709252339e-16
-8.835053048e-17
-2.831597811e-17
-8.917749065e-18
-2.759403002e-18
-8.38790944e-19
-2.504491508e-19
-7.344563816e-20
-2.115202823e-20
-5.981938572e-21
-1.661135382e-21
-4.52912422e-22
-1.212378935e-22
-3.185527078e-23
-8.204403892e-24
-2.05351316e-24
-4.766013703e-25
-7.549321374e-26
-4.535854699e-27
-6.67998606e-05
-2.588629107e-05
-9.200796241e-06
-1.339037686e-06
-2.059143195e-07
6.764539197e-07
1.180994361e-06
-1.242843945e-06
1.337754022e-06
-1.288393327e-06
-1.287537318e-06
1.326854149e-06
1.327313936e-06
-1.279671714e-06
-1.269235414e-06
-1.269422687e-06
-1.26974221e-06
-1.270363059e-06
-1.271863949e-06
-1.274355189e-06
-6.877816724e-07
-3.135621695e-07
-1.406635228e-07
-6.210855374e-08
-2.699805358e-08
-1.155576864e-08
-4.870825887e-09
-2.021975069e-09
-8.266705449e-10
-3.328668444e-10
-1.319998852e-10
-5.154804783e-11
-1.982192959e-11
-7.504541044e-12
-2.79696981e-12
-1.026054963e-12
-3.70425314e-13
-1.315834839e-13
-4.598252696e-14
-1.580487589e-14
-5.341923551e-15
-1.775253939e-15
-5.800069338e-16
-1.862503948e-16
-5.877158102e-17
-1.822211748e-17
-5.550444856e-18
-1.660724639e-18
-4.880455246e-19
-1.408551987e-19
-3.992068345e-20
-1.110974215e-20
-3.035728392e-21
-8.14401767e-22
-2.144380886e-22
-5.531451634e-23
-1.384176978e-23
-3.157243983e-24
-4.943412759e-25
-3.13624907e-26
-0.0002697884805
-0.0004619396444
-6.022493664e-05
-9.219100558e-06
-2.863865615e-06
-1.212200905e-06
-5.194732386e-07
-1.535937257e-07
6.997911757e-08
1.094645439e-06
-1.221057195e-06
1.329805488e-06
-1.298854069e-06
1.337434883e-06
-1.279198103e-06
-1.270421778e-06
-4.340493442e-07
-1.272217486e-06
-1.269218971e-06
-1.269207777e-06
-1.271140436e-06
-1.274034645e-06
-6.205785817e-07
-2.718024699e-07
-1.173160304e-07
-4.990800063e-08
-2.092777954e-08
-8.65014712e-09
-3.524184144e-09
-1.415139525e-09
-5.600183594e-10
-2.183797782e-10
-8.390046919e-11
-3.175296501e-11
-1.183562373e-11
-4.344085478e-12
-1.569693914e-12
-5.582733955e-13
-1.953880288e-13
-6.727749772e-14
-2.278565296e-14
-7.588798106e-15
-2.485178738e-15
-8.001185014e-16
-2.531736478e-16
-7.871588831e-17
-2.404622132e-17
-7.21628961e-18
-2.127185162e-18
-6.158489403e-19
-1.750976737e-19
-4.888647311e-20
-1.340193352e-20
-3.607157873e-21
-9.527190238e-22
-2.462030605e-22
-6.136251104e-23
-1.363336911e-23
-2.051102348e-24
-1.258920368e-25
-0.0004519950692
-0.001802709921
-0.0005292304632
-5.593762549e-05
-1.524658168e-05
-7.142916012e-06
-3.663966632e-06
-1.767845956e-06
-6.919351807e-07
-1.605466698e-07
4.570109809e-08
1.978213068e-07
1.240249071e-06
-6.453348346e-07
-1.281789042e-06
1.326759714e-06
-1.273037389e-06
-1.269226334e-06
-1.27020636e-06
-1.270178991e-06
-1.269205855e-06
-1.269195906e-06
-1.272081855e-06
-1.013184336e-06
-4.341834393e-07
-1.835154604e-07
-7.65118002e-08
-3.146667777e-08
-1.276511775e-08
-5.107565538e-09
-2.015415557e-09
-7.841672941e-10
-3.007920211e-10
-1.137228264e-10
-4.2369684e-11
-1.555197535e-11
-5.622517106e-12
-2.001612911e-12
-7.014891224e-13
-2.419584961e-13
-8.211776754e-14
-2.741484143e-14
-9.000443892e-15
-2.905648327e-15
-9.222793077e-16
-2.877154181e-16
-8.819393368e-17
-2.656117654e-17
-7.858568028e-18
-2.283850375e-18
-6.518873711e-19
-1.827345022e-19
-5.030037308e-20
-1.35937568e-20
-3.603619241e-21
-9.329503283e-22
-2.307930718e-22
-4.978280174e-23
-7.15010638e-24
-4.221297851e-25
-0.0004497945684
-0.002806506058
-0.003386274674
-0.0004774191907
-6.942307155e-05
-2.453620323e-05
-1.163655596e-05
-5.649295618e-06
-2.456930375e-06
-7.944300064e-07
-2.738831563e-08
2.28997752e-07
2.176457711e-07
-1.571094084e-07
-1.260526901e-06
1.32090044e-06
1.327073918e-06
-1.288766862e-06
1.325563485e-06
1.325230157e-06
-1.277437105e-06
-1.269205348e-06
-1.269195955e-06
-1.270122094e-06
-1.273451556e-06
-6.108674859e-07
-2.536861841e-07
-1.039457774e-07
-4.202460008e-08
-1.676415617e-08
-6.597957521e-09
-2.561731317e-09
-9.810303087e-10
-3.704843576e-10
-1.379424421e-10
-5.062432432e-11
-1.830794556e-11
-6.522587061e-12
-2.28864304e-12
-7.906645269e-13
-2.688733926e-13
-8.997564189e-14
-2.961971707e-14
-9.589548842e-15
-3.053108591e-15
-9.557643935e-16
-2.940920124e-16
-8.892175283e-17
-2.641605018e-17
-7.709577104e-18
-2.210268786e-18
-6.223840724e-19
-1.721127741e-19
-4.672611481e-20
-1.243305515e-20
-3.221260501e-21
-7.893715055e-22
-1.652408818e-22
-2.265695608e-23
-1.289255944e-24
-0.0004242968522
-0.002937002415
-0.007069774033
-0.003269059513
-0.0003172306085
-6.024096836e-05
-2.442849696e-05
-1.135788661e-05
-4.724061678e-06
-1.416214706e-06
6.127728306e-08
5.736574455e-07
6.077968394e-07
4.278174303e-07
2.348823719e-07
-1.042657672e-06
-1.288388187e-06
1.326571868e-06
1.318765097e-06
-1.285558216e-06
-1.270233884e-06
-1.269584765e-06
-1.270164514e-06
-1.269189622e-06
-1.269180167e-06
-1.272507945e-06
-7.794260285e-07
-3.191174581e-07
-1.288821572e-07
-5.135317302e-08
-2.018826696e-08
-7.830319691e-09
-2.996210296e-09
-1.130884232e-09
-4.209582249e-10
-1.545046772e-10
-5.590117239e-11
-1.993254615e-11
-7.002403991e-12
-2.422989487e-12
-8.25571878e-13
-2.769077975e-13
-9.140417813e-14
-2.968288047e-14
-9.480692164e-15
-2.977913242e-15
-9.197490252e-16
-2.792587259e-16
-8.332649456e-17
-2.442917477e-17
-7.036446998e-18
-1.991051094e-18
-5.533477641e-19
-1.509482416e-19
-4.031874659e-20
-1.044186503e-20
-2.530161246e-21
-5.143306321e-22
-6.749183393e-23
-3.714058543e-24
6.297282067e-05
-0.002148629223
-0.0078931037
-0.01062686727
-0.002317146382
-0.0001828526707
-5.224352052e-05
-2.17174554e-05
-8.282879396e-06
-2.139214165e-06
3.746684559e-07
1.177007457e-06
1.219084628e-06
9.635969408e-07
6.346220382e-07
3.299617888e-07
7.85803506e-07
1.320128697e-06
-1.286791438e-06
-1.278079984e-06
1.329817356e-06
-3.22552875e-07
1.328036773e-06
-1.277220999e-06
-1.269184026e-06
-1.269175862e-06
-1.271659697e-06
-9.187851487e-07
-3.719015605e-07
-1.484204636e-07
-5.841477483e-08
-2.267657058e-08
-8.683205731e-09
-3.279591428e-09
-1.221680271e-09
-4.487784692e-10
-1.625410653e-10
-5.803049603e-11
-2.041767345e-11
-7.07784082e-12
-2.416707085e-12
-8.125618494e-13
-2.689519982e-13
-8.761084746e-14
-2.807881085e-14
-8.851634956e-15
-2.744166003e-15
-8.365555916e-16
-2.507295861e-16
-7.386306399e-17
-2.138171475e-17
-6.080978259e-18
-1.698683438e-18
-4.656039162e-19
-1.247886312e-19
-3.227372963e-20
-7.724114568e-21
-1.526182091e-21
-1.922464268e-22
-1.026551692e-23
0.0002706513684
-0.001136735178
-0.006913999189
-0.01438992226
-0.01092391792
-0.0007364100781
-6.519914245e-05
-3.153855288e-05
-1.08741394e-05
-9.391123288e-07
2.484197163e-06
3.040102895e-06
2.6129358e-06
1.958917022e-06
1.339933971e-06
8.22140506e-07
4.011361817e-07
-5.412450382e-07
-1.269069323e-06
-1.280061735e-06
1.326657632e-06
-1.289526384e-06
1.317496565e-06
1.323212821e-06
-1.276936529e-06
-1.26917909e-06
-1.269171614e-06
-1.271016239e-06
-1.014510641e-06
-4.067977453e-07
-1.607250674e-07
-6.259280972e-08
-2.403252986e-08
-9.098339235e-09
-3.396472492e-09
-1.25020672e-09
-4.537136242e-10
-1.62317581e-10
-5.723399128e-11
-1.988638764e-11
-6.807237034e-12
-2.295045818e-12
-7.619111782e-13
-2.489981535e-13
-8.008572359e-14
-2.534382013e-14
-7.889239351e-15
-2.415193202e-15
-7.27056371e-16
-2.151991059e-16
-6.261641008e-17
-1.790447251e-17
-5.028086943e-18
-1.38473531e-18
-3.721391933e-19
-9.599707772e-20
-2.267545597e-20
-4.358767883e-21
-5.283501232e-22
-2.744181813e-23
-0.0003802332541
-0.0006106207898
-0.006422102608
-0.01639239313
-0.0242320919
-0.005350764621
0.0002232090711
1.701827818e-05
3.904563271e-06
9.790053736e-06
1.062531809e-05
8.380589677e-06
5.885659269e-06
3.971286385e-06
2.607683958e-06
1.645906803e-06
9.570404367e-07
4.497166807e-07
-4.746593018e-07
1.273817378e-06
1.308917806e-06
1.324829914e-06
-1.293005754e-06
1.3172804e-06
1.323016115e-06
-1.276668051e-06
-1.269174396e-06
-1.269167435e-06
-1.270617971e-06
-1.060722164e-06
-4.218361277e-07
-1.651989241e-07
-6.373431618e-08
-2.423079169e-08
-9.079635944e-09
-3.353625378e-09
-1.220988004e-09
-4.381641787e-10
-1.549695659e-10
-5.401043026e-11
-1.854616112e-11
-6.273180229e-12
-2.089694056e-12
-6.853914932e-13
-2.212865038e-13
-7.031227673e-14
-2.198230147e-14
-6.760529593e-15
-2.044858615e-15
-6.082086637e-16
-1.778680928e-16
-5.112837903e-17
-1.443499857e-17
-3.994215815e-18
-1.075803785e-18
-2.76524757e-19
-6.44316418e-20
-1.20618512e-20
-1.410595312e-21
-7.14406106e-23
6.049068469e-05
-0.000344552173
-0.004679435817
-0.01843079096
-0.0352130943
-0.02343907595
0.002270537592
0.0003931847333
7.739870004e-05
4.57336416e-05
3.247540936e-05
2.119378032e-05
1.294573885e-05
7.847279681e-06
4.849673247e-06
3.016936818e-06
1.828057276e-06
1.023333352e-06
4.592999133e-07
5.50604633e-07
1.308784031e-06
1.314303138e-06
-2.400982686e-07
-1.28790155e-06
1.317099148e-06
1.322841418e-06
-1.276446057e-06
-1.269170515e-06
-1.269163815e-06
-1.270469591e-06
-1.058202506e-06
-4.176274277e-07
-1.622234012e-07
-6.204931969e-08
-2.337759598e-08
-8.677525102e-09
-3.173800569e-09
-1.143858841e-09
-4.062262006e-10
-1.421467716e-10
-4.900403932e-11
-1.664139348e-11
-5.565908371e-12
-1.83311291e-12
-5.943790878e-13
-1.897019549e-13
-5.958390431e-14
-1.841409244e-14
-5.598274023e-15
-1.673982251e-15
-4.922073816e-16
-1.422552008e-16
-4.037448449e-17
-1.122023452e-17
-3.026626053e-18
-7.745253234e-19
-1.779529023e-19
-3.247410368e-20
-3.672036855e-21
-1.817269953e-22
-0.001069608664
0.001618019676
-0.002440689403
-0.01905106387
-0.04492844852
-0.06063813743
0.004092296955
0.002109039317
0.0003116263742
0.0001475666518
8.733039787e-05
4.994403073e-05
2.742752357e-05
1.508311032e-05
8.687016916e-06
5.218823318e-06
3.180997666e-06
1.877877384e-06
1.019440189e-06
4.391930656e-07
6.935662485e-07
1.308779452e-06
1.319589546e-06
-5.536797826e-07
-1.287490344e-06
1.316903019e-06
1.32273776e-06
-1.276266543e-06
-1.269168094e-06
-1.269161404e-06
-1.270559178e-06
-1.011443495e-06
-3.963133426e-07
-1.527808667e-07
-5.797341516e-08
-2.16602442e-08
-7.970275382e-09
-2.888832399e-09
-1.031435868e-09
-3.627756771e-10
-1.256877914e-10
-4.289154664e-11
-1.441532061e-11
-4.770796143e-12
-1.554549461e-12
-4.986486358e-13
-1.574306608e-13
-4.891204875e-14
-1.495203519e-14
-4.496390773e-15
-1.329821448e-15
-3.865729891e-16
-1.103015656e-16
-3.077408818e-17
-8.308072656e-18
-2.115196215e-18
-4.791053417e-19
-8.529181062e-20
-9.337935861e-21
-4.521235743e-22
0.1447747084
0.005900169786
-0.001643926224
-0.02027487556
-0.06056875102
-0.1080339628
-0.0186771607
0.01151064943
0.001949848565
0.0005660968655
0.0002461485959
0.000118071041
5.75887295e-05
2.909489058e-05
1.567749711e-05
9.01914851e-06
5.378140275e-06
3.199672601e-06
1.816236778e-06
9.498587971e-07
3.869278418e-07
9.136056112e-07
1.309912518e-06
1.315086008e-06
1.325160871e-06
-1.292569371e-06
1.316334205e-06
1.322638446e-06
-1.276073749e-06
-1.269165633e-06
-1.269158667e-06
-1.270843321e-06
-9.274230013e-07
-3.610453549e-07
-1.382376936e-07
-5.207934464e-08
-1.931185327e-08
-7.050270864e-09
-2.534428707e-09
-8.971935167e-10
-3.127794875e-10
-1.073816316e-10
-3.630262989e-11
-1.2084439e-11
-3.9604993e-12
-1.277782433e-12
-4.057813359e-13
-1.268226072e-13
-3.900380418e-14
-1.180178464e-14
-3.512144005e-15
-1.027158587e-15
-2.946731783e-16
-8.252361568e-17
-2.228692397e-17
-5.642624457e-18
-1.260120567e-18
-2.190734943e-19
-2.326433908e-20
-1.103914858e-21
0.004616550088
-5.863745467e-05
-0.001710408601
-0.02078797819
-0.08418313129
-0.1686637821
-0.09379176665
0.03950047238
0.006018648808
0.001839331175
0.0006465769946
0.0002587854652
0.0001112712905
5.154346151e-05
2.626920859e-05
1.462490845e-05
8.599215083e-06
5.15247649e-06
3.023213085e-06
1.651976799e-06
8.119993644e-07
2.973520895e-07
-1.120286529e-06
-1.280180805e-06
-6.473381445e-07
1.328401333e-06
-4.251104394e-07
1.313117656e-06
1.323502521e-06
-1.274960718e-06
-1.269165136e-06
-1.269155733e-06
-1.271280879e-06
-8.159296013e-07
-3.159322748e-07
-1.202682973e-07
-4.503146294e-08
-1.658955595e-08
-6.014710512e-09
-2.146498952e-09
-7.541012754e-10
-2.6081685e-10
-8.880831286e-11
-2.976964674e-11
-9.823686762e-12
-3.190996303e-12
-1.020217619e-12
-3.210193778e-13
-9.940040806e-14
-3.028220582e-14
-9.07235886e-15
-2.670269304e-15
-7.703359535e-16
-2.165331277e-16
-5.848176272e-17
-1.471959602e-17
-3.241577966e-18
-5.509344971e-19
-5.685420086e-20
-2.648778291e-21
-0.00345701284
-0.001152017749
-0.003646773586
-0.01776881601
-0.1181687082
-0.262638726
-0.2349495248
0.0611612791
0.02653693622
0.005936609684
0.001638953691
0.0005460405501
0.000205950711
8.724349486e-05
4.205954281e-05
2.265467661e-05
1.308320715e-05
7.814087151e-06
4.65502602e-06
2.626328493e-06
1.413863054e-06
6.226144746e-07
4.855055343e-08
1.315514966e-06
1.325007757e-06
-1.2850395e-06
-1.280723313e-06
1.323239564e-06
-1.282882339e-06
-1.269176504e-06
-1.269169749e-06
-1.269162798e-06
-1.269152669e-06
-1.271818917e-06
-6.893146396e-07
-2.658143273e-07
-1.007307914e-07
-3.752863503e-08
-1.3750868e-08
-4.956531585e-09
-1.757878666e-09
-6.135080443e-10
-2.107210197e-10
-7.123123034e-11
-2.36980825e-11
-7.759443008e-12
-2.500388652e-12
-7.928994827e-13
-2.474094762e-13
-7.594690139e-14
-2.292067942e-14
-6.792778686e-15
-1.971137723e-15
-5.56134245e-16
-1.501877202e-16
-3.75753145e-17
-8.161649961e-18
-1.356827597e-18
-1.361154329e-19
-6.229639938e-21
-0.01035972628
-0.003010705988
-0.002357146369
-0.01942175063
-0.1901431161
-0.4274448478
-0.4088080928
0.02756387853
0.07051278066
0.01935753952
0.0042728563
0.001119449237
0.0003589276632
0.0001381357777
6.307496071e-05
3.289800188e-05
1.855495495e-05
1.103069516e-05
6.533126998e-06
3.778101182e-06
2.158128061e-06
1.121414443e-06
4.497657879e-07
7.09082933e-07
-1.283067648e-06
-1.279694157e-06
1.32428825e-06
1.317697648e-06
-1.275943701e-06
-1.270122097e-06
-1.27007811e-06
-1.269165128e-06
-1.269160238e-06
-1.269149717e-06
-1.272395722e-06
-5.606001483e-07
-2.155585203e-07
-8.141142866e-08
-3.021422168e-08
-1.1023002e-08
-3.954330612e-09
-1.395160255e-09
-4.84197813e-10
-1.653176487e-10
-5.553252452e-11
-1.835388979e-11
-5.968549833e-12
-1.909669286e-12
-6.010952103e-13
-1.860923398e-13
-5.662201931e-14
-1.690697567e-14
-4.936963179e-15
-1.39837277e-15
-3.776305076e-16
-9.393182566e-17
-2.013622684e-17
-3.278634262e-18
-3.203171537e-19
-1.44264562e-20
-0.02323775161
-0.1424012669
-0.01146430764
-0.03318450641
-0.37621132
-0.7472121054
-0.6289328194
-0.05626817054
0.1330994981
0.0562137261
0.0113814268
0.002274014463
0.0005888371474
0.0002012544673
8.626201803e-05
4.349719691e-05
2.391741927e-05
1.394259784e-05
8.16228191e-06
4.970740143e-06
2.955000978e-06
1.640872592e-06
7.793272887e-07