/*--------------------------------*- C++ -*----------------------------------*\
  =========                 |
  \\      /  F ield         | OpenFOAM: The Open Source CFD Toolbox
   \\    /   O peration     | Website:  https://openfoam.org
    \\  /    A nd           | Version:  10
     \\/     M anipulation  |
\*---------------------------------------------------------------------------*/
FoamFile
{
    format      ascii;
    class       volScalarField;
    location    "0.02498436188";
    object      ddt0(rho,epsilon);
}
// * * * * * * * * * * * * * * * * * * * * * * * * * * * * * * * * * * * * * //

dimensions      [1 -1 -4 0 0 0 0];

internalField   nonuniform List<scalar> 
5170
(
19092.59087
-3602.505551
-1103.152677
17093.13842
-92762.07366
-7160.891605
-2525.668716
-139.5011492
-3483.021134
-92427.86257
-18492.21758
-24392.7957
-13678.52569
-6437.38376
138061.6451
31443.10606
22103.99481
7881.470356
-4739.710122
88181.30822
9784.115017
58010.47979
33901.94757
-1067.648297
214892.8316
-67547.95698
-133097.0452
-104867.322
-3035.843096
1074114.023
5098.161068
-2121.757476
-61039.6063
-30434.58367
1079540.655
40165.98286
50597.99702
82408.33073
118852.9776
1226240.08
15333.34304
31679.39974
-15386.87845
-129654.9624
1442717.863
-16838.64449
13912.59226
61830.92249
-536874.2158
1615061.544
-20528.85829
-12530.90808
19357.24358
349249.8479
1615492.138
-3076.66938
-20569.22067
-31785.7999
648053.6616
1642650.711
8446.994173
-9773.799465
-41644.99841
310916.0115
1721903.294
9528.502388
4773.154005
-14271.46826
-163273.9098
1837606.504
1864.117234
11047.01404
6458.75023
-291338.54
1861408.939
-5748.913791
4133.415247
27180.32184
-174488.2899
1922709.732
-1053.540479
-3388.922085
10075.79575
118017.7608
1976402.431
4777.326118
2660.105952
-34501.73672
294139.6158
1963124.072
1919.515015
5197.638276
-4112.577862
169587.3609
1878504.12
724.6730242
8093.389998
31278.21709
-83097.51491
1184600.553
-9484.296786
-27.79183506
2.350833327
201.5103718
-9230.395722
-9367.453378
47.75401214
7.776586706
39.15052139
-8512.016281
-5313.923868
7.45572635
22.47730694
23.7871814
-3997.217559
-3861.052102
24.59342763
9.64534926
9.851530744
-2947.304317
-3951.518245
-5.376551712
-3.463111205
5.289509966
-3679.117262
-4250.918723
-2.204687932
0.08993491613
5.904784676
-5033.082416
-4553.419659
-5.056759866
-4.804547414
120.51795
-7303.183977
-4435.303601
-26.982075
-17.93642628
5.087142001
-9308.522008
-6076.669669
3.198345778
71.60545611
89.74696645
-10117.45462
-8287.159927
76.33688679
59.95437988
627.0124443
-11076.77476
-7329.183062
-12.04310037
-50.55930378
-385.6667867
-10125.36019
-6698.784873
1.066806685
47.94348798
-1206.692677
-13110.35108
-8048.278671
224.3843741
568.3529641
5004.293511
-14412.46137
-13689.60388
23.54018933
32.44740838
2583.557491
-13122.47398
-13332.73028
99.66000891
653.8438067
-12473.56403
-25088.88693
-12992.3361
-79.96719747
-1737.051976
-988.4561278
-21582.69176
-13682.25156
523.0373152
2537.941449
8192.795861
-21228.18443
-17675.95142
273.5148831
1901.894455
7389.56189
-28192.92148
-17076.96504
-429.8056579
-568.5610352
-761.1939141
-27558.93666
-44419.73313
-1880.487475
-4097.030682
396.5608609
-59096.71417
-7724.471769
12158.5506
44882.76922
38354.94921
632109.829
8181.499534
-21297.53568
14938.97642
289316.9285
-329855.8436
4550.648598
-19615.96289
-185419.4876
-398368.9216
-339942.389
-11675.32731
21230.71819
136132.5493
420398.2989
18971.15876
-24114.59638
50517.08151
514607.9816
393032.2411
674786.6647
-13601.69102
-19792.43755
-105690.9529
250225.9642
673061.5614
-5549.273154
-45494.48131
-265320.1032
-6877.936612
297179.5997
10668.83523
-2598.499336
-46047.64404
-9574.238397
-62550.95498
35051.45452
57723.50299
280070.0867
261375.2908
125422.1746
23579.2777
91074.45101
326050.1872
167705.9546
91802.82138
8886.820326
157878.366
23570.18014
-49246.8405
17511.05379
93148.66847
-357623.5323
-246740.9106
-180341.9573
-170194.4364
-383912.6589
-329767.5537
-332525.7116
-332838.6086
-455049.6553
-271843.2522
-322762.4078
-284908.0948
-232511.2411
-158165.9934
-40252.98454
-3079.055525
118524.6798
83883.33885
35883.66598
376307.6773
307635.2304
174582.8358
141657.5876
76695.40302
-144381.491
-109488.0423
-101565.6623
-106452.4623
-50341.14541
-29152.43331
37058.94689
111306.0909
87650.95141
-22919.02109
342163.6058
261297.7836
-29876.84012
-389911.3531
-702780.2415
-295204.6151
-485336.1695
-945393.0094
-1630000.928
-2466113.213
-2241674.168
-2657418.813
-3875179.206
-5739082.706
-8493407.406
-8934103.224
-9278352.202
-9715047.225
-10127073.2
-9846509.546
-7599631.707
-7419021.594
-7128099.245
-6587675.297
-6317981.078
-4064935.349
-4023557.125
-4021673.788
-4188990.238
-3847738.836
-2396512.973
-2006537.729
-1019357.824
405926.5327
1616985.726
3395323.161
3350137.127
3095436.853
2834031.475
2838765.118
2620427.298
2625298.698
2601180.776
2576475.108
2598523.197
1969708.8
1946982.657
1955287.669
1944021.712
1922769.835
1347343.696
1335024.481
1337127.962
1324719.846
1302753.711
866281.0093
868832.8737
863088.4089
853427.6359
845266.257
554149.3208
550172.6585
549283.9599
541848.9747
537858.658
356789.339
356260.1458
353315.1955
351355.7993
341901.8742
236768.5416
233794.1407
232762.7795
232052.1544
226367.2964
154791.4295
153866.3581
154121.5111
152727.3743
149038.788
98994.97027
98701.25914
98327.21409
97679.65052
97046.67184
60599.58098
60069.89679
59691.73759
60147.00938
58641.051
34767.38755
34946.59937
34681.88124
34664.59986
34313.32729
19152.30401
19425.91847
19184.00294
19393.64442
18729.25231
10929.05938
10229.92369
10348.56077
10595.28061
10669.9836
5376.912761
5716.679039
5791.793735
5482.604079
5863.374384
3076.592528
3205.668592
3162.688347
3136.08478
3175.616475
1936.930108
1863.191632
1836.417438
1942.05026
1736.142019
1065.332553
1263.181412
1215.123837
1225.639605
1029.469573
810.0912617
852.9076158
847.1683643
879.1902208
677.3153964
568.2428624
668.6200085
654.455526
633.8610294
606.9534469
500.6177229
498.931921
505.3809189
513.4325367
560.0752166
373.3209321
418.6251418
418.2487931
416.1022997
418.3618661
309.7351785
341.7095524
348.751817
340.3288851
302.8373774
255.7600121
288.6040458
283.9393707
289.5433431
218.270712
228.2918297
239.6726178
243.0057823
231.411934
224.5422783
209.6031392
196.562833
205.1904171
205.3775724
210.6170283
186.621633
176.4331173
170.5532184
179.1489205
226.3410008
124.2190444
161.2163848
167.8892404
140.9538094
184.0606044
142.9398169
131.8560852
134.7684104
139.0714663
105.9200664
95.91469906
130.4673379
110.1515372
122.422403
116.1752526
87.21460033
108.2757984
103.4266284
100.3524489
101.2116368
97.44061493
88.07973764
90.46922454
84.125283
124.6113115
85.03095642
79.39840739
80.3266113
76.50989944
109.207685
75.51068912
72.61814653
71.60876375
70.79939517
96.31442156
64.59704592
66.32407235
65.75185606
62.70279333
82.64966366
59.54625588
59.68545363
59.36685211
56.45042512
70.98504645
56.15376376
54.02915526
51.5978542
51.07488452
63.96423628
49.33852393
48.22632861
46.42126574
45.84665915
66.38807404
40.9356666
43.24744745
43.19289012
39.32515801
56.09046145
39.13538805
35.68246652
38.79805538
36.35311379
39.85376174
31.04041277
33.42932023
32.75004211
32.14148987
34.31181213
30.10003349
30.04477526
29.64623085
30.24264839
31.73715199
24.84878763
26.18239114
25.35241003
25.59182189
25.3281516
27.83395614
28.07148164
27.30227583
28.03244364
27.07301225
18.7131086
19.33987258
19.15903885
19.14601109
18.42321958
-1748574.534
1325528.283
1444700.319
1369871.814
726213.7469
775293.7577
235755.5572
-108374.4583
52504.00198
50250.99641
18372.41955
-209643.2642
-196136.4591
-75359.46204
130683.1582
-327849.8326
149257.2324
-153526.1441
-750816.166
-3157046.036
-9727729.377
-9616517.965
-6459714.868
-2691096.516
1494683.093
2826824.233
2497035.68
1929458.545
1311825.676
821325.0994
518434.2153
355349.2279
232963.6045
157049.7135
96057.32011
60868.49763
34973.32037
20784.94925
9205.721489
5221.330432
3298.670077
2427.228418
1931.888976
1515.535961
826.1338606
324.6792864
388.8598356
480.174567
518.8880006
311.5747621
174.817699
-7.581017563
68.62761267
245.0888454
114.4157499
111.1940787
-31.49822874
-22.92741209
-13.15943976
5.4463018
18.67968959
17.03151779
-20.27636535
-4.282382069
29.94121252
27.38736537
22.50174242
26.36400703
28.55532208
21.42301094
287504.6392
-138893.2169
15445.79561
-6656.983169
770.7284301
-462063.7978
-574765.6409
23969.56309
-15204.35994
-737.9753328
266025.9152
323771.1309
679548.8539
26843.38826
32478.97152
724539.6918
491082.8113
-40551.93828
-46559.44191
-4902.953856
490677.0603
462619.1039
-2537.608951
145420.5879
-35153.29104
595994.3142
205947.737
100641.2236
105970.7099
44112.72814
185973.682
244577.3948
61673.24827
255381.3983
-17222.80331
-3253.475344
-2853.523541
-52132.67207
124800.2966
-63603.11956
64136.11448
65360.29734
-73033.02401
14734.79218
3903.537334
-276.3823094
-189290.845
-28482.77707
-221300.0249
26683.53801
11932.81187
-153393.9353
-98479.30156
-150074.2714
-116849.6091
-106153.965
-115035.1036
-24019.9363
-40392.90159
-107593.3436
-194445.4213
-144016.1912
-235529.612
83338.75774
-58919.29616
-99878.6408
19044.80941
-52230.99835
-204145.9507
-47884.04365
156790.7228
249528.928
85927.29451
-202956.8211
-221875.6106
-270986.443
-461368.6662
-236334.9283
-301396.3037
-555781.7409
146691.5581
100690.7749
-174174.0633
-517474.607
-470269.3334
-334934.8054
-528826.3056
-537767.3255
-403062.2743
-704275.1753
-859550.1907
-1374366.731
-1973323.381
-2751998.14
-3625866.245
-4059185.969
-6978423.692
-10942061.88
-15676644.9
-21593881.13
-11119953.34
-11720882.73
-11008311.13
-11133069.02
-12274814.07
-9289932.295
-8774401.786
-8257606.478
-6887554.282
-4158223.987
-6807157.508
-5675791.327
-3320958.27
-1285613.676
-659958.841
-1394914.413
223286.4714
1019589.363
1434316.045
1438230.813
1974004.498
2464134.355
2733649.789
2702029.806
2421007.032
2917130.59
2998897.747
2964623.629
2771978.611
2448062.335
2581901.151
2546424.272
2446547.481
2256471.124
1998925.003
1906658.058
1861327.949
1765407.825
1624815.221
1445533.637
1285443.515
1246773.305
1178796.463
1083854.109
970433.3547
826934.5611
798725.4382
754421.8818
696098.1188
627341.1443
525444.3995
507495.7102
480978.97
446939.2675
406852.7678
338441.8421
329516.4794
314329.6884
294613.8947
271824.3212
224577.0839
219291.2867
210759.4317
199354.1462
186290.2488
148620.9389
146375.6919
141152.5485
134980.6454
127008.1542
96255.82987
94647.76085
92078.71453
88324.22636
83839.93318
58948.99125
58543.4845
57051.05161
55151.59415
52537.0752
34491.94683
34279.47818
33730.48625
32572.64077
31353.73434
19185.20184
19300.49574
19014.18179
18545.09816
17872.32264
10640.30743
10605.56937
10432.56761
10306.11113
9945.128761
5791.329814
5796.342398
5753.712398
5684.440366
5563.803459
3232.460736
3244.850248
3288.411662
3210.193813
3201.926583
1884.947133
1945.645197
1961.756704
1937.148121
1939.972526
1186.778026
1262.030516
1253.82467
1272.464957
1254.046759
816.4409657
884.1978437
884.6498804
886.0287466
891.3171772
645.4862844
663.0103499
665.411773
668.9996435
670.2903033
533.2610409
527.2794733
518.1241203
536.167734
523.7414525
421.5809741
430.83032
415.8539526
436.0965792
424.5887407
332.1541198
351.0732656
344.0779071
357.2034632
348.0886612
265.275067
289.7026737
289.5371562
291.353443
293.2963809
234.9955891
240.5538065
248.2614729
241.7558578
250.0517117
206.4501514
208.6075348
208.648127
209.9416819
211.6011989
194.8481759
180.5951017
181.5691205
184.0226376
184.0142669
163.7294356
158.6004242
157.7151318
162.4474314
159.7765147
126.9346633
137.3924949
139.1506017
139.0032473
141.0039523
118.5247027
119.7774798
120.068147
122.2753799
122.030132
101.8450511
104.7395893
104.6929538
106.9265082
106.8047222
101.2881489
90.87631041
93.34572506
93.82462148
94.69638945
89.9680342
81.50441885
83.36999542
83.76889155
84.91214134
80.65154963
73.92328545
75.16662613
76.15224957
76.49808007
70.77784948
67.03642023
67.54396266
68.2223143
69.32242868
63.33729151
59.98860535
61.0374118
61.77462315
62.19444837
57.17825342
53.24675684
55.47975281
55.16821622
55.98773882
54.12389789
48.3761817
49.25658379
50.03605487
50.20944992
46.87593956
43.14281274
43.9197531
44.42748363
44.80785025
38.38350384
38.23793174
38.72381877
39.18207142
39.58327403
33.39448547
33.33007839
33.76215544
34.03721961
34.45531625
30.72928359
30.49084299
30.59980665
30.96612964
31.14563447
25.33704896
25.65493086
25.4599842
25.75846597
25.6048224
27.31708716
27.4024479
27.18128767
27.09277144
26.76294514
18.58152126
18.11383247
17.04356506
15.66029459
14.09150576
-54.74218699
-1.538687001
-0.6548590365
-0.1000158604
-0.02364888714
-0.01133055077
-0.007153334859
-0.005535028413
-0.004280213268
-0.003546851524
-0.003071017453
-0.003006189272
-0.003565104377
-0.005828043587
-0.006545613392
-0.006364368367
-0.006031714831
-0.005662508468
-0.005236792577
-0.004695698255
-0.004006813097
-0.003283980452
-0.002615813603
-0.001864444098
-0.0012818543
-0.0007241784724
-0.0001915616407
0.000323592769
0.0008162778986
0.001242678278
0.001568521651
0.001656294952
0.001741351433
0.001749696418
0.001688394862
0.001679631535
0.001682931986
0.001566095854
0.001433207247
0.001313855434
0.001202845539
0.001072667178
0.0009826442652
0.0008778486313
0.0007449452642
0.0006187187005
0.0005184708463
0.0004257005653
0.0003387147032
0.0002546229335
0.0001726261876
8.645557764e-05
2.424883754e-05
3.962924771e-05
0.0001089921775
0.000117431545
0.0002023552343
0.0003754094087
0.0003221371408
-0.1057094323
-163.2799042
-7.094425122
-1.331026632
-0.3544950646
-0.1014596957
-0.05007372011
-0.03351408245
-0.02405850271
-0.01731256081
-0.01276133713
-0.01002061567
-0.008436350851
-0.006586618296
-0.002322131299
0.0005535082539
0.001998332989
0.002975321905
0.003722386031
0.00439166918
0.004985736473
0.005422022459
0.005719242158
0.00585150019
0.005749950144
0.006012274818
0.006032113894
0.005980377029
0.005872567515
0.005698485241
0.005497681945
0.005272110156
0.005013708848
0.004721478834
0.004421735072
0.004073752221
0.003835514552
0.003538048826
0.003227243764
0.002913575243
0.002624572617
0.002334024344
0.002096352106
0.00185769213
0.001634042129
0.00141500333
0.001210237683
0.001018897395
0.0008563108572
0.0007087122486
0.0006004073059
0.0004958078206
0.0004343502909
0.0003666286594
0.0002773880849
0.0001458508454
0.000138717374
0.0003566473063
0.0008291934994
0.0005330796937
-0.1012997585
-384.6420304
-74.17908877
-4.887577519
-0.9068567255
-0.3445776001
-0.1804244653
-0.1196033143
-0.08777826188
-0.06039350552
-0.04116849405
-0.02775417512
-0.01789919172
-0.01081012736
-0.006907097323
-0.004198771517
-0.002330273206
-0.001122513611
0.0001514009025
0.001249042584
0.002024605665
0.002055089095
0.001880801485
0.001707565345
0.001672657252
0.001396329555
0.001288611574
0.001184443128
0.001090610736
0.00100414549
0.000928625958
0.0008679988303
0.0008159078981
0.0007678583449
0.0007297336577
0.000709757145
0.0006823438656
0.0006210712984
0.0005497103844
0.0004809388957
0.0004187289595
0.0003626826884
0.0003106593233
0.0002623453823
0.0002447059713
0.0002243784629
0.0001929377684
0.0001633810147
0.0001394130422
0.0001215103083
0.0001001061528
8.051749802e-05
6.295915326e-05
4.207041747e-05
2.429502887e-05
3.194901847e-05
0.0001208997959
0.000302661127
0.0004591942348
-0.001308683244
-0.0964214429
-11493.90807
-1067.141271
-54.29805052
-5.002661017
-1.22445649
-0.5148412134
-0.3383663011
-0.2308831997
-0.1607738629
-0.112474672
-0.07978509368
-0.05612504406
-0.03966213056
-0.0296090206
-0.02335437485
-0.01938567622
-0.01603830265
-0.01326557532
-0.01109295465
-0.009549258719
-0.008147282471
-0.006961661127
-0.005972112428
-0.005120393224
-0.004366579525
-0.003642993358
-0.003047159211
-0.002562021263
-0.002142986524
-0.001769180867
-0.001422234674
-0.001121802391
-0.0008940754627
-0.000700175097
-0.0005470961205
-0.0004342290336
-0.0003419000255
-0.0002746034418
-0.0002480033968
-0.000305339206
-0.0002658057825
-0.0002134141435
-0.0001672176064
-0.0001664295715
-0.000160253712
-0.0001248910394
-8.451240864e-05
-4.877202593e-05
-2.010136231e-05
-2.814575312e-06
1.039896765e-05
1.721916861e-05
2.280446255e-05
2.323586874e-05
4.830087229e-05
8.810537047e-05
0.0001851850679
-0.0002593723488
-0.006397034191
-0.0924200392
-10827.99595
-2629.311088
-511.4052388
-63.98877343
-7.810894327
-1.683710938
-0.9174707939
-0.5839034386
-0.3931505043
-0.2691999105
-0.1829376018
-0.1247783635
-0.08693158944
-0.0630270426
-0.0471890045
-0.03590593866
-0.02832630109
-0.02340906998
-0.02009070563
-0.01756176225
-0.01523787385
-0.01323302237
-0.01150471249
-0.01001478522
-0.008813373351
-0.007835213446
-0.006959922886
-0.00616921746
-0.005447753024
-0.004797533608
-0.004215295124
-0.003685838714
-0.003216992565
-0.002788075424
-0.002387628686
-0.002021524285
-0.001687899361
-0.00137445538
-0.001081671991
-0.0007680070654
-0.0005915907675
-0.0004426204694
-0.0003295044064
-0.0002009678269
-0.0001179475456
-2.312096425e-05
1.434681968e-05
3.802905047e-05
5.363328647e-05
6.267424501e-05
6.672268557e-05
6.243287948e-05
5.60824088e-05
4.381609213e-05
2.331437697e-05
2.440000005e-05
-7.659628716e-05
-0.001337083132
-0.01223762368
-0.08752670987
-1317.799851
-2051.009627
-1286.01202
-433.3200056
-42.91370932
-5.513443058
-1.677646898
-1.284024886
-0.9194373295
-0.6388632324
-0.4245233636
-0.2780903713
-0.1807679288
-0.1169141118
-0.07631829581
-0.05219455651
-0.0376909059
-0.02855665578
-0.02256565892
-0.01829338629
-0.01514124473
-0.01266652806
-0.01064363863
-0.009006437375
-0.007689989302
-0.006549974698
-0.005591327437
-0.004804124065
-0.004102250623
-0.003489682162
-0.002983254089
-0.002539510702
-0.002151516649
-0.001815001751
-0.001520190915
-0.001258640739
-0.001032688755
-0.0008408994052
-0.000674178881
-0.000522951766
-0.0003879682369
-0.000279505477
-0.0002115018166
-0.0001587527146
-7.461295739e-05
-4.6712077e-05
-4.097266802e-06
1.387038519e-05
2.1550771e-05
3.353559829e-05
3.238508602e-05
2.857272573e-05
2.000055935e-05
9.710036402e-06
-1.906712287e-05
-0.0001111976762
-0.0005364596052
-0.002524924734
-0.01516132741
-0.08384846793
23563.97552
537.0528162
-1515.354311
-2968.99517
-423.1225297
-15.72803362
-2.273224079
-1.902417743
-1.431369044
-0.9639946103
-0.6423650094
-0.4194537672
-0.2700805728
-0.173639544
-0.1135642932
-0.0773689402
-0.05494399762
-0.04048017913
-0.03135716196
-0.02517516695
-0.02055825985
-0.01700030446
-0.01416184308
-0.01188437378
-0.01002521428
-0.008494572429
-0.007224222499
-0.006158278972
-0.005245024048
-0.004484596441
-0.003828078985
-0.003259355041
-0.002783665697
-0.002363289402
-0.00200090627
-0.001692728209
-0.001424122665
-0.001194261182
-0.0009930366767
-0.0008171309669
-0.0006590971171
-0.0005058455283
-0.0003646613848
-0.0002601830233
-0.0002412705851
-0.0002204498327
-0.000175005761
-0.00012423887
-8.844623952e-05
-6.221879446e-05
-5.544509347e-05
-4.851373006e-05
-5.420348847e-05
-9.367811477e-05
-0.0001197690451
-0.0003450353728
-0.001278451643
-0.003533769238
-0.01512445319
-0.09404265629
-3314.75384
-1341.260276
-13359.76885
-14810.63014
-3798.254103
-85.2340087
11.91831658
1.795168596
-0.8692542818
-0.9349033673
-0.7052541626
-0.4816134968
-0.3146973934
-0.2035564841
-0.1329051211
-0.0904985231
-0.06493386445
-0.04919280768
-0.03883540522
-0.03124660071
-0.02585022348
-0.02166860716
-0.01825291269
-0.0154066842
-0.01300911611
-0.01105435029
-0.009425258807
-0.00804411754
-0.006878436277
-0.005898567603
-0.005053686991
-0.004333966177
-0.003720371143
-0.003184513379
-0.002730240378
-0.002330011671
-0.001990659229
-0.001690819491
-0.001429072326
-0.001202480139
-0.001004008034
-0.0008431561534
-0.0006916746156
-0.0005155970239
-0.0003906917718
-0.0003195848491
-0.0003006838515
-0.000274895976
-0.0002255129722
-0.0001785808576
-0.0001543345429
-0.0001412886395
-0.0001545059539
-0.0001573976649
-0.0002492549546
-0.000624537011
-0.001492313888
-0.004161020947
-0.01345284226
-0.05954181985
-68938.61365
-19248.59898
-23434.53371
-26661.77548
-14718.93795
-610.9698434
180.1531254
24.5618054
4.243174487
0.1128743363
-0.4090627316
-0.3836930904
-0.2746431174
-0.1816943064
-0.1207716852
-0.08390579718
-0.06242938906
-0.05029333074
-0.04183180016
-0.03535925666
-0.03013090543
-0.02564837838
-0.02190332278
-0.01864461001
-0.01590236796
-0.01354992462
-0.01158109094
-0.009909882359
-0.008483827743
-0.007282674454
-0.006262796967
-0.0053873987
-0.004640994996
-0.004000361276
-0.003448152892
-0.002962941946
-0.00254545428
-0.002182780959
-0.001856439812
-0.001581895475
-0.001338351002
-0.001136623147
-0.0009665111391
-0.0008508082738
-0.0006844804588
-0.0005167843193
-0.0004117246043
-0.0003483273014
-0.0003287228283
-0.0003089106327
-0.00028185518
-0.0002611885926
-0.0002515088264
-0.0002478618629
-0.0003869838404
-0.0006779806163
-0.001296881819
-0.002980345803
-0.009477820792
-0.06013079552
-15934.45377
-21560.27417
-47038.41566
-51996.98446
-29026.56137
796.1433142
1794.99812
139.8317493
20.21936271
3.440829582
0.6396406594
0.03577084328
-0.08072235499
-0.07896802299
-0.05744248655
-0.0464373357
-0.04166751447
-0.04014253903
-0.03743284741
-0.03520740962
-0.03201869904
-0.02860334659
-0.02501725212
-0.02166663629
-0.01866527853
-0.01597431277
-0.01365847238
-0.01170664996
-0.01003568389
-0.008618302276
-0.007418901634
-0.006393172529
-0.005520546756
-0.004769953414
-0.004121118512
-0.003555082782
-0.003060949825
-0.00263352278
-0.00226066616
-0.001937456881
-0.00165960751
-0.00141502994
-0.001206761587
-0.001032316328
-0.0008962467773
-0.0007747827622
-0.0006273549112
-0.0004919513469
-0.0004149528449
-0.0003683853031
-0.0003436648699
-0.0003154658337
-0.0003172741919
-0.0003407862285
-0.0004815582444
-0.0007037717079
-0.001150176829
-0.002148797724
-0.006814085086
-0.08747968623
-17536.18992
-15202.46534
-87776.78004
-81858.3311
-52128.67758
-488.5175308
8510.07802
614.7836117
59.31318619
12.45682313
3.26366664
1.013744162
0.3586002712
0.1588950965
0.08189853413
0.03870203
0.008039104448
-0.01120279581
-0.02230636126
-0.0287428122
-0.03061364344
-0.02978878027
-0.02738294527
-0.02444321067
-0.02136249048
-0.01843155931
-0.01578761766
-0.01354548057
-0.01162185222
-0.009977531393
-0.008579004607
-0.007382192047
-0.006360997171
-0.005485138416
-0.004736090311
-0.004091140092
-0.00353897943
-0.003054691463
-0.002637207125
-0.002269242063
-0.001956505262
-0.001679010904
-0.001443536947
-0.001232128518
-0.001057833473
-0.0009123390141
-0.0008018642142
-0.0006985577172
-0.0005872695515
-0.0004819937267
-0.0004275409376
-0.0003798323507
-0.0004018652115
-0.0004374551969
-0.0005755501358
-0.0007623431986
-0.001125387677
-0.001719653848
-0.004297897575
-0.08027606153
34264.08195
-97870.14947
-118386.0285
-101189.068
-67772.28751
10896.4586
25905.7883
3602.014852
254.4688958
38.36105715
8.862054132
2.837543231
1.159527777
0.5760717607
0.3167641297
0.1854458915
0.1017358029
0.04533873726
0.01196494804
-0.009403252457
-0.0223109562
-0.02732320357
-0.02778632854
-0.02623781529
-0.02369560152
-0.02075833551
-0.01794776465
-0.01543959425
-0.01323356346
-0.01134840026
-0.00973975353
-0.008369865641
-0.00720183458
-0.006199941589
-0.005345676981
-0.0046148769
-0.003991498925
-0.003455138276
-0.002990037241
-0.0025837948
-0.002232582214
-0.001921522342
-0.001657166808
-0.001421536528
-0.001229073631
-0.001060259176
-0.0009281489163
-0.0008089533512
-0.0007217930621
-0.0006356004073
-0.0005757398531
-0.0005337227567
-0.0005152132548
-0.0005541767833
-0.000665965027
-0.0008348307844
-0.001193431905
-0.001581613041
-0.002835150973
-0.07163196652
-118336.9207
-135273.5005
-162778.0696
-154366.7059
-95222.33759
19787.19984
54401.82203
11753.29689
924.5711893
98.46818716
19.04055452
5.874392402
2.454695861
1.23894526
0.6972305725
0.4180723558
0.2483773186
0.1344451786
0.06702028113
0.02625198006
-0.002212081375
-0.01774989858
-0.0241223256
-0.02576688472
-0.02482432829
-0.02245577331
-0.01978298391
-0.01712002455
-0.01470059195
-0.01260025488
-0.01079413186
-0.00926940141
-0.007963165735
-0.006855125099
-0.005905125124
-0.005102906759
-0.004410277439
-0.003822982607
-0.003310921759
-0.002871602292
-0.002483559896
-0.002148056652
-0.001859828693
-0.001611781822
-0.001402256801
-0.001208995746
-0.001053360727
-0.0009186116245
-0.0008149995452
-0.0007190523253
-0.000663907475
-0.0006109447484
-0.000605913622
-0.0006362906522
-0.0007353947329
-0.0008825019398
-0.001140026252
-0.001245803939
-0.001361566272
-0.06570826507
-218257.2561
-189629.4166
-311220.1426
-239016.169
-138292.6419
43023.82952
99554.72547
30580.44802
3153.737143
283.0742308
45.37607414
11.7165711
4.536951169
2.253354567
1.271405923
0.7605614679
0.4655732183
0.2726896385
0.1512221732
0.08247529137
0.03287328033
0.0008014034784
-0.01460639573
-0.0217804369
-0.02372247574
-0.02286914153
-0.02079429265
-0.01831042547
-0.01584930921
-0.01360149808
-0.01163873138
-0.009960795018
-0.008541872924
-0.007340419494
-0.006332180641
-0.005472037036
-0.004738045332
-0.004105046126
-0.003566071529
-0.003097733469
-0.002692873341
-0.002341536036
-0.002041111408
-0.001773842257
-0.001547546579
-0.001338834333
-0.0011719912
-0.001024713613
-0.0009192650522
-0.0008094460295
-0.0007542257285
-0.0006993623058
-0.0006909043138
-0.0007152503325
-0.0007996602394
-0.0009061412151
-0.001047959653
-0.000753481324
0.0007929474753
-0.06138500669
-396044.775
-532058.3182
-500185.6018
-383062.5154
-109220.6488
154117.5558
166914.6545
57374.20844
8907.235591
838.3030584
100.4663691
21.39079296
7.57312225
3.592745288
1.953658709
1.15281442
0.7039893243
0.4295966931
0.2636342095
0.1552054467
0.07635550178
0.02732536624
0.0002289472386
-0.01388504757
-0.01985936573
-0.02145199212
-0.0205899655
-0.01867068949
-0.01639888294
-0.01414783406
-0.01213792133
-0.01039427174
-0.00891466462
-0.007660855735
-0.006604768375
-0.005705304602
-0.004941964551
-0.004288364216
-0.003732981708
-0.003250557011
-0.002841353458
-0.002481878044
-0.002173403987
-0.001896649704
-0.001661582561
-0.001450933503
-0.001282967195
-0.001123157727
-0.001006136863
-0.0008926223332
-0.0008433876589
-0.0007845666607
-0.0007854414665
-0.0007894418075
-0.0008642338061
-0.00093790574
-0.001012052208
-0.0004397716168
0.002402123377
-0.0575412647
-659500.7991
-719850.6272
-658004.6661
-321383.3305
207060.3595
370359.2222
228270.7425
84057.8225
19914.88228
2402.777796
238.2239156
40.37038066
11.97585396
5.258320178
2.741746695
1.544086314
0.9238833315
0.6099297938
0.3916223671
0.2297162832
0.1232611373
0.05768725631
0.01963610805
-0.002089807586
-0.01303037073
-0.01765835841
-0.01862552517
-0.01770484469
-0.01595768945
-0.0140033872
-0.01212597853
-0.01043311582
-0.008966302453
-0.007718920455
-0.006660945969
-0.005764079107
-0.005004780552
-0.004359775567
-0.003811320615
-0.003337213271
-0.002931082483
-0.002571819991
-0.00226205082
-0.001987899705
-0.001750852612
-0.001543263137
-0.001369539995
-0.001207644806
-0.001087363185
-0.0009691789139
-0.0009196898459
-0.0008574737033
-0.0008586131081
-0.0008542567142
-0.0009103318282
-0.0009336038326
-0.0008672219316
0.0001238095129
0.004221654145
-0.05490732521
-873877.4717
-941866.0095
-634207.7626
136650.7149
472019.8617
501963.4091
258381.9696
99709.89526
31308.09153
5623.059145
572.1562329
69.24698764
17.47257634
7.047891162
3.502699053
2.019816918
1.238761591
0.7716525933
0.4847277761
0.2965905382
0.1708936721
0.09138391461
0.04185273634
0.01280914136
-0.003391761794
-0.01138988743
-0.01456356908
-0.01511065868
-0.01426347711
-0.01288638291
-0.01136040844
-0.009885789117
-0.008572373084
-0.007419767671
-0.006442650949
-0.005607793273
-0.004903274814
-0.004302586336
-0.003782486278
-0.00333445914
-0.002947320425
-0.002600482097
-0.002303879291
-0.002035835163
-0.001808640243
-0.00160286657
-0.001432807652
-0.001271187231
-0.001149965525
-0.001036650229
-0.0009885025115
-0.0009242186397
-0.0009238761635
-0.0009135232082
-0.0009537797648
-0.0009188884893
-0.0007006946269
0.0007034393616
0.00590996586
-0.05260724347
-1505261.168
-1133825.323
-306801.6091
441366.4996
1197477.124
621549.9309
214822.1153
85542.05855
40880.28221
9865.088064
1065.05211
96.73212908
17.79997911
8.155161036
4.293666902
2.386335986
1.379136224
0.8621118076
0.5484198227
0.3421909195
0.2065379134
0.1178509648
0.06159441767
0.02741875838
0.00751017524
-0.003303211723
-0.008701892301
-0.01083083652
-0.01118036918
-0.01064552864
-0.009689097169
-0.008639039552
-0.007622399463
-0.006706836323
-0.005908805426
-0.005209589159
-0.004611799571
-0.004092642549
-0.00364082552
-0.003239475177
-0.002885287246
-0.002573423981
-0.00229764645
-0.00204735513
-0.001832130767
-0.001632560479
-0.001469626686
-0.001313888978
-0.001197132052
-0.00109063063
-0.001039505461
-0.0009726020327
-0.0009717047641
-0.0009570320616
-0.0009846334401
-0.0009153214899
-0.0006191928515
0.0009518580857
0.00658633982
-0.0496027639
-2927151.386
-981579.3797
1953496.043
1477855.603
592655.8835
191427.9895
86381.56191
48440.50287
30803.45048
10363.86085
1016.928895
-32.77190811
-1.373779519
3.424078007
3.9385155
2.432350998
1.469843684
0.915685231
0.584645842
0.3702934349
0.2277732297
0.135224775
0.07625343281
0.0401552319
0.01835640503
0.005497075615
-0.001627528305
-0.005295045856
-0.006928153164
-0.00736745364
-0.007209245835
-0.006755753411
-0.006193546259
-0.005627453849
-0.005088971574
-0.00459558891
-0.004149117108
-0.00373994716
-0.003383207935
-0.003054880313
-0.002759954413
-0.002490140653
-0.002247968005
-0.002022759481
-0.00182398891
-0.00163972312
-0.001486760679
-0.001341963197
-0.001231329137
-0.001132673235
-0.001080072358
-0.001014134402
-0.001011140138
-0.0009842495604
-0.0009880123023
-0.0008661066845
-0.0004650892709
0.001293400609
0.006931764018
-0.04733806812
-5237584.728
-12659742.19
-1749196.261
223107.4466
82663.10525
30903.04397
-12868.08609
1917.129059
5188.355747
3338.069355
-13.49955376
-531.4149281
-176.126422
-18.1361264
-1.630987182
1.646202095
1.394494824
0.9501212209
0.60869263
0.3838688967
0.23927716
0.1459885095
0.08671009359
0.04967682737
0.02738183779
0.01366179254
0.005389073338
0.000639141037
-0.002040279347
-0.003439233864