/*--------------------------------*- C++ -*----------------------------------*\
  =========                 |
  \\      /  F ield         | OpenFOAM: The Open Source CFD Toolbox
   \\    /   O peration     | Website:  https://openfoam.org
    \\  /    A nd           | Version:  10
     \\/     M anipulation  |
\*---------------------------------------------------------------------------*/
FoamFile
{
    format      ascii;
    class       volScalarField;
    location    "0.02498436188";
    object      ddt0(rho,CH2CHO);
}
// * * * * * * * * * * * * * * * * * * * * * * * * * * * * * * * * * * * * * //

dimensions      [1 -3 -1 0 0 0 0];

internalField   nonuniform List<scalar> 
5170
(
1.44118992e-64
1.441302232e-64
1.441393454e-64
1.441686944e-64
1.442609771e-64
1.45306736e-64
1.453204227e-64
1.453401042e-64
1.453763074e-64
1.454654255e-64
1.45313472e-64
1.453294335e-64
1.453571436e-64
1.453951897e-64
1.454829074e-64
1.453110882e-64
1.453303126e-64
1.453635941e-64
1.45401063e-64
1.454900065e-64
1.453118878e-64
1.453330436e-64
1.453696385e-64
1.45407007e-64
1.460894997e-64
2.095062673e-64
1.571576506e-64
1.463967185e-64
2.528826776e-64
4.574569416e-62
2.629065748e-60
5.221325585e-61
5.551659362e-62
7.664866412e-60
3.416404395e-57
1.104226646e-55
2.415725746e-56
3.208853728e-57
5.568507884e-55
2.519804257e-52
4.777601065e-51
1.175038145e-51
1.971826963e-52
4.098950208e-50
1.843181883e-47
2.135284935e-46
6.013412861e-47
1.275999116e-47
3.032030601e-45
1.344236357e-42
9.885699839e-42
3.238399505e-42
8.617868295e-43
2.229213619e-40
9.807830819e-38
4.745450146e-37
1.833176531e-37
6.06661693e-38
1.603035652e-35
7.16932817e-33
2.365484221e-32
1.089797961e-32
4.43667903e-33
1.104141414e-30
5.256714931e-28
1.223861037e-27
6.783380517e-28
3.389930872e-28
7.057884445e-26
3.869821439e-23
6.574689102e-23
4.417240443e-23
2.731929158e-23
3.924423915e-21
2.860470331e-18
3.663707157e-18
2.99685214e-18
2.33866155e-18
1.60902316e-16
2.122828516e-13
2.116110296e-13
2.116532431e-13
2.117287405e-13
2.119183755e-13
2.139188013e-13
2.135860279e-13
2.136195535e-13
2.136559706e-13
2.137182145e-13
2.139317209e-13
2.135991908e-13
2.136311636e-13
2.136660342e-13
2.13747974e-13
2.208493192e-13
2.135991526e-13
2.136147214e-13
-1.326732879e-09
7.636199492e-10
-1.560910958e-10
-1.841988929e-19
2.051695207e-19
8.418605412e-20
2.390648163e-19
2.370106944e-19
-1.094622896e-19
1.055602419e-19
-4.687370807e-20
-2.228643672e-19
-2.283570806e-20
-8.373955317e-20
-5.490419416e-21
-2.982927853e-21
2.09021821e-21
-6.025290268e-21
-4.859942389e-20
-1.336725488e-20
-2.110172887e-20
2.493308259e-20
-2.092786149e-18
-1.48074084e-17
2.535939277e-18
1.198973585e-18
-2.251559977e-18
5.238631702e-18
2.133094836e-14
-6.500027542e-17
-2.913168795e-17
1.254784204e-15
-5.25917504e-14
4.751195e-14
-1.800386776e-14
-1.735685905e-14
3.084861317e-14
-1.566054348e-12
-3.784117374e-11
5.087935435e-13
-2.652186938e-13
1.323649454e-12
-6.773282469e-11
-6.899179831e-11
-3.004880839e-11
7.710245929e-13
-4.152286442e-11
5.056919585e-11
3.143276556e-11
-2.783731487e-11
-9.408902062e-11
4.715734109e-11
5.903214865e-12
6.629214219e-12
1.980262131e-11
5.702251213e-11
9.994973215e-12
3.671518809e-12
-1.800297787e-12
1.236619383e-11
1.2384192e-11
-4.045756434e-12
7.409608869e-12
-7.266461074e-12
1.951498639e-12
-7.137584081e-12
-9.940338356e-13
1.497925487e-11
1.284441012e-11
1.456860504e-13
-2.935010218e-13
1.044304293e-11
-1.28321739e-14
-5.151421749e-12
2.526695412e-11
1.499739656e-11
2.819749047e-12
2.2532237e-12
1.489715196e-12
1.471606442e-11
1.182682197e-11
5.411529712e-13
7.907677461e-12
7.968041669e-13
-4.382996623e-13
-3.415940605e-13
2.566650024e-12
-3.914027558e-11
7.965421425e-12
2.931091864e-12
3.238816619e-12
8.508822582e-12
-1.573717841e-10
-4.048421229e-11
-1.178942859e-12
3.180020748e-12
-4.377020198e-11
-1.582433391e-10
7.172413047e-09
1.249624323e-10
-8.143328194e-11
2.913006613e-11
8.104792186e-13
-4.345338074e-10
-1.114386327e-09
1.728681755e-09
3.207944101e-08
-2.950242012e-06
2.136783792e-13
5.079284419e-10
3.764124056e-10
6.605621054e-08
7.123462556e-07
2.140396977e-13
-1.912000231e-09
-5.624764993e-08
1.446933732e-09
1.322033568e-07
2.157841735e-13
-5.273353798e-11
3.39280743e-09
2.033405756e-08
8.957379114e-08
1.22093738e-09
1.084201292e-09
-7.992741237e-09
5.440914004e-08
3.826368582e-07
-1.865602683e-10
4.383237512e-10
-2.255856803e-10
-1.851506009e-08
-3.630202792e-07
2.860746733e-10
-5.009462429e-11
-1.471168116e-09
-3.543301256e-08
-4.259129594e-07
4.226531005e-09
5.323763464e-08
3.686283398e-09
5.318445916e-08
4.220470019e-07
1.610471992e-10
4.522117306e-08
-1.013315465e-08
-9.137718438e-08
-2.052839207e-08
4.161440425e-11
3.296031273e-09
-4.813462109e-09
-1.121232083e-07
-4.40976508e-07
9.864215106e-10
-9.815039301e-10
-6.490610702e-09
-5.260916528e-08
-2.961346385e-07
-1.686654297e-09
-8.417737742e-09
-3.031172393e-08
-8.587551037e-08
-1.423068274e-07
-1.404578223e-09
-4.356473258e-09
-8.494811586e-09
1.977625861e-08
1.684922437e-07
6.293181626e-10
2.535478083e-09
2.252115435e-08
1.179348924e-07
4.816515676e-07
-3.606222159e-09
1.167723593e-08
4.293896849e-08
3.263680296e-07
3.057489524e-06
1.768911765e-08
3.19344909e-08
7.126075423e-08
8.348770907e-08
2.137214103e-07
5.34830282e-08
-4.411539355e-09
-4.231382796e-06
-1.574334847e-06
-9.084894805e-06
2.197875558e-08
2.770291356e-07
-6.314975499e-07
-4.422609268e-06
-3.408381405e-05
2.857822674e-06
-2.96715884e-07
2.023424329e-07
8.162494231e-06
4.48200317e-06
-7.863071942e-07
-1.528285044e-06
-2.622232081e-06
-3.262927735e-06
-4.643892508e-06
-1.056803735e-06
-1.521642662e-06
-2.815033666e-06
-5.28038992e-06
-8.571760952e-06
2.583914991e-08
-3.844854386e-07
-1.757564897e-06
-4.873853801e-06
-9.958552738e-06
4.437159263e-06
4.63501136e-06
4.963442743e-06
5.278432919e-06
5.628192029e-06
6.872420488e-06
7.50456772e-06
8.536751787e-06
9.390757007e-06
1.063351207e-05
4.161361849e-06
4.184903558e-06
4.27245507e-06
4.905900544e-06
4.680818153e-06
1.235823085e-06
1.245648387e-06
1.241900599e-06
1.162100642e-06
1.150882655e-06
2.659184991e-07
2.638225493e-07
2.467365056e-07
2.403612397e-07
2.202247165e-07
4.838875953e-08
4.497956786e-08
4.36579623e-08
3.577677083e-08
4.349069275e-08
8.779404506e-09
8.916708829e-09
9.644118269e-09
8.74163798e-09
3.85484248e-09
1.765946636e-09
1.874441704e-09
2.069981309e-09
1.863955567e-09
1.387962074e-09
-6.643250673e-10
-6.422099669e-10
-1.813618227e-10
1.444371443e-09
2.903096752e-10
-3.935479493e-11
-3.348084708e-11
-2.083960144e-11
4.394042362e-11
4.629593313e-11
7.414977155e-12
5.663971616e-12
-3.984700596e-12
-4.566439606e-12
-1.42184099e-12
-3.050115154e-12
-3.114358062e-12
-3.335424705e-12
-3.303771186e-12
-3.224969971e-12
-2.145791923e-11
-2.169225557e-11
-2.17479731e-11
-2.134285576e-11
-2.108719329e-11
-6.311959922e-11
-6.372293744e-11
-6.435670646e-11
-6.547097517e-11
-6.186441509e-11
-5.453987972e-12
-4.127930515e-12
8.113452364e-12
8.688118199e-12
5.234327576e-12
9.887447302e-12
1.011587229e-11
1.23280893e-11
2.605478045e-11
2.687637106e-11
1.052053336e-11
1.032251893e-11
1.078022433e-11
9.843005304e-12
2.202714651e-11
1.003852677e-11
2.571744701e-11
2.633493255e-11
-2.971260087e-11
-3.012909166e-11
6.284972891e-13
4.162207151e-13
-1.320825069e-13
-2.405162774e-12
-3.70739761e-12
-6.979357601e-12
-1.051458184e-12
2.572816545e-11
3.159671777e-11
1.289898894e-11
2.563078882e-12
5.875108992e-12
3.147138041e-12
4.467942783e-12
-1.196994991e-12
2.4555106e-13
5.756104549e-13
6.170024557e-13
-1.365634642e-12
2.305394617e-12
-1.251969513e-11
-2.684104873e-12
8.928430471e-12
1.424122868e-11
-2.624095609e-11
-2.868955795e-11
-2.613528504e-11
-2.182629267e-11
-9.963294114e-12
-2.700987011e-12
-3.804666209e-12
-2.085240364e-12
-9.454937801e-13
-1.131248977e-11
-4.281973468e-11
1.673677966e-11
1.412786976e-11
-1.160695889e-12
-2.823261937e-12
-2.124471085e-12
5.008596511e-13
1.321181376e-13
-6.437234102e-13
-2.604473538e-13
-3.950982837e-14
1.103117107e-12
-7.001501803e-13
-6.011376933e-13
-5.897368996e-14
4.318792866e-14
6.894793236e-13
6.990080861e-13
6.996511234e-13
6.843482219e-13
6.378210451e-13
7.15737453e-13
7.206455578e-13
7.240626802e-13
7.138707614e-13
6.713256316e-13
6.029331524e-13
6.100820663e-13
6.133469063e-13
6.014391866e-13
5.504187379e-13
5.935790733e-13
6.009728248e-13
6.061417897e-13
5.997589871e-13
5.563056742e-13
1.714154201e-14
1.73068104e-14
1.112592025e-14
8.899675484e-15
-5.341603504e-15
-4.677847451e-14
-4.773483857e-14
-5.074541267e-14
-5.325183132e-14
-7.537084995e-15
1.88479167e-14
1.430849026e-14
1.093343128e-14
1.363282391e-14
5.168301611e-14
3.240560153e-14
2.622777298e-14
1.988798727e-14
1.970195449e-14
5.562095461e-14
3.299422106e-14
2.653230887e-14
1.954724112e-14
1.841744912e-14
5.307419067e-14
-2.168352385e-14
-4.773708704e-14
-9.895576307e-14
-1.583776096e-13
-1.946606277e-13
-7.756279518e-15
-7.576121961e-15
-9.91787916e-15
-1.809510537e-14
-4.005983062e-14
-2.209390766e-14
-1.91017153e-14
-9.148999591e-15
1.42368275e-14
3.855269236e-14
3.74746135e-14
3.722210831e-14
3.702931963e-14
1.597924071e-14
-1.203400017e-15
-7.249289594e-14
-7.19268811e-14
-6.970629985e-14
-6.389239055e-14
-5.644411139e-14
-6.11646675e-14
-6.119833975e-14
-5.996659147e-14
-5.542994231e-14
-4.91283605e-14
-5.865264686e-14
-5.878643611e-14
-5.776345092e-14
-5.346817678e-14
-4.736949404e-14
1.630982834e-15
6.861061265e-16
3.870367974e-15
-9.157927862e-15
-1.838367879e-14
5.707516225e-14
6.35804708e-14
7.654992757e-14
9.80162615e-14
5.211131174e-14
-6.702205509e-13
-6.896406345e-13
-7.149802505e-13
-7.218850469e-13
-6.162138938e-13
-1.238051288e-13
-1.2864994e-13
1.042554761e-13
-8.241878357e-13
-8.00516076e-13
-1.183335015e-05
-9.624036067e-07
4.146721545e-07
4.771080896e-07
2.157317944e-07
-8.961676498e-07
-1.848279236e-06
-1.207241147e-06
9.490369094e-07
2.222141152e-06
-4.864087887e-07
-1.396025479e-07
1.243541139e-07
8.991242805e-07
1.911636835e-05
2.402306587e-07
-2.765414036e-06
-1.051045335e-05
-2.263351782e-06
-4.099383272e-06
-9.412494984e-06
-1.413356778e-05
5.933531523e-06
1.164798304e-05
4.569862797e-06
1.111699898e-06
2.131650198e-07
4.338710612e-08
-6.847294962e-10
9.696282955e-10
1.741093225e-10
4.756641366e-11
2.643871314e-12
-3.91020892e-12
-1.828928867e-11
-6.729781168e-11
2.917718925e-12
1.863239015e-11
3.528792486e-11
-9.619485108e-12
-7.290307882e-13
2.698014433e-11
6.023517054e-12
1.319893676e-11
-2.613058645e-11
-2.387054312e-12
-1.361274368e-11
-2.266881086e-12
-1.912729872e-12
-1.330950954e-12
5.321725776e-13
4.978610206e-13
5.148001645e-13
5.225378706e-13
-2.876213814e-14
-3.521810865e-14
1.168650819e-13
1.169865015e-13
1.223213438e-13
-1.539061663e-13
-7.099227429e-14
1.921620428e-14
-5.372116824e-14
-6.854229788e-14
-6.139914616e-14
-5.956752935e-14
-9.070589092e-14
4.26000241e-13
-3.720225649e-13
-9.844196296e-13
-1.730165249e-06
2.394333348e-08
1.862873477e-09
-2.497738915e-11
3.035966879e-11
-1.283036512e-08
-2.744146519e-06
1.560676623e-08
-1.202187639e-09
-7.013063522e-10
-1.668638423e-07
-1.18575898e-07
8.295860305e-07
5.623011206e-09
3.059658062e-08
-3.278468116e-06
2.866208675e-05
-3.831842216e-06
-1.188970743e-07
1.510684258e-08
-4.78195761e-06
-5.171139611e-06
-6.191268791e-05
-1.931823632e-06
2.726961289e-08
4.088980436e-06
-7.711885494e-06
-4.224639973e-06
-3.635893011e-07
-4.475945692e-08
-1.982825822e-06
-8.356817876e-06
-2.62660979e-05
-6.525654384e-06
1.239685677e-07
-8.387985484e-06
4.366459131e-06
7.813497006e-05
2.636084403e-06
-1.965426363e-08
4.784932022e-06
2.304641211e-06
-1.798015722e-06
-2.404200767e-05
-3.710342316e-06
4.083137195e-06
-1.698168719e-06
-7.61334731e-06
-1.157999433e-05
2.027374329e-06
-7.483669718e-08
-1.042400509e-06
1.81991949e-05
-9.27679626e-06
2.503083379e-07
-5.639158474e-07
-2.19729571e-07
-1.462755932e-07
-7.673125843e-06
2.405199529e-06
4.08238966e-08
1.007987339e-05
3.699802861e-07
-2.311477475e-07
8.31796243e-07
5.496136191e-07
-1.615163278e-06
7.884320756e-09
-2.870102476e-07
-7.067944361e-07
1.704449071e-06
-1.956732583e-06
-4.887367519e-08
-4.217588128e-07
1.666519555e-05
-2.841653049e-06
-2.290938009e-06
1.294286426e-06
2.538658548e-08
1.023874781e-05
1.230652197e-06
-3.285849855e-06
-2.639540284e-06
-3.761990668e-06
6.763643749e-06
-1.471129807e-06
-1.685664564e-06
-4.183928081e-06
-1.047065561e-05
1.22435544e-05
-2.972383717e-06
-4.134133653e-06
-8.782011315e-06
-2.251449791e-05
2.218658409e-06
-9.843125088e-07
9.209855029e-06
2.845035719e-06
-0.0003716002697
-0.002232211156
-8.024454402e-06
3.500446565e-06
3.623140469e-05
6.92356014e-05
-0.0002185974525
-1.978285042e-05
-2.195051297e-05
7.513911177e-06
0.0001623267351
0.0005740972926
5.722451147e-06
1.289905593e-05
3.663466287e-05
8.326047656e-05
0.0001389348518
1.298080535e-05
1.519002017e-05
1.699141399e-05
1.817152665e-05
1.883277758e-05
5.758704924e-06
4.879207374e-06
4.14902836e-06
3.230722527e-06
2.442057984e-06
1.104425526e-06
9.643008413e-07
7.285140412e-07
4.844556036e-07
2.900550346e-07
2.07262867e-07
2.175119083e-07
5.417622171e-08
7.146872346e-08
4.136335364e-08
3.384011592e-08
3.184144617e-08
3.642842851e-08
1.747998039e-08
7.836850251e-09
-1.881336101e-08
2.678397055e-09
5.030526264e-09
2.193387649e-09
7.225777915e-10
-1.282008843e-10
-5.654313143e-10
4.457604711e-10
3.838335774e-10
4.662475838e-10
1.502984741e-10
3.383571692e-11
-1.108201237e-10
5.144186059e-11
4.234921371e-11
2.649985472e-11
4.902301437e-11
4.066625646e-11
6.588192547e-11
-9.404427806e-12
6.526314368e-12
5.238632558e-12
1.211928306e-11
5.909761942e-12
-3.899077228e-11
2.670418016e-12
2.628977889e-12
-1.354058664e-12
-6.843112873e-12
-2.8255431e-11
-2.539739377e-11
-3.107129501e-11
-2.248540494e-11
-1.051100997e-10
-4.036344717e-11
-1.069095246e-10
5.927937849e-12
8.795443381e-12
-8.349910257e-11
-9.230608426e-11
4.961131336e-12
-1.196298247e-11
2.868163542e-11
-1.098787843e-11
-5.048668516e-11
2.37451103e-11
-7.183063394e-11
4.091003446e-11
4.808677844e-11
-2.516791112e-11
-2.247799085e-11
-2.242111962e-11
5.302131479e-11
5.680311759e-11
-1.437663861e-11
4.142862157e-11
2.785751409e-11
9.384217316e-12
-5.491814081e-11
-1.591096119e-10
5.795012843e-12
4.049060513e-11
-9.523449603e-11
3.613888523e-12
2.188080238e-11
-9.475675923e-11
1.368459164e-12
1.301298078e-12
2.112729236e-12
3.406049593e-12
4.523181448e-12
2.791808645e-14
2.038953244e-12
4.098451662e-12
-1.467912474e-11
3.820686547e-12
-1.633008427e-11
1.500532561e-11
-4.048444705e-12
7.31249034e-12
-2.250339827e-11
1.019263361e-11
-5.737592589e-12
1.886289546e-11
-8.141899201e-11
1.203070053e-11
1.929143617e-12
-3.616826548e-11
-3.736303791e-11
1.455873051e-11
2.81122245e-11
1.479092054e-10
-2.819124057e-11
-6.320538874e-12
4.557153572e-13
-3.643083367e-12
-4.550045761e-12
-1.628513223e-12
-7.528700476e-13
1.741606346e-13
-3.37417469e-13
3.32128916e-13
2.30176212e-13
1.358873129e-13
-8.358850356e-13
-1.181995367e-12
-1.809788906e-13
-2.025337018e-13
-2.400660138e-13
-2.168574419e-13
7.828440572e-13
7.62996982e-13
7.804309774e-13
7.522075326e-13
5.964641309e-13
7.639031315e-13
8.161366852e-13
7.581952721e-13
7.432408462e-13
2.895507258e-13
6.680096477e-13
7.375970698e-13
8.018374158e-13
6.633630588e-13
-8.708242431e-14
6.008942787e-13
-2.343972417e-14
-1.471250122e-14
-1.725949957e-14
-6.955641775e-14
7.884256501e-15
-2.745754637e-14
-4.403428815e-14
-1.024818679e-13
6.247500474e-14
-6.137704511e-14
1.372265095e-13
8.335896859e-14
8.968027855e-14
1.032825421e-13
4.444639782e-14
7.184952023e-14
9.412605627e-14
1.073050191e-13
1.155855533e-13
4.695981918e-14
7.390991199e-14
9.503250479e-14
9.898844718e-14
8.025644276e-14
3.978551618e-14
5.418135944e-14
3.904650566e-14
-4.534433636e-14
-2.030942707e-13
-2.580117622e-13
-2.09015254e-13
-7.341860933e-14
-7.917559658e-15
-4.438774677e-14
-3.812639781e-14
-1.915928827e-14
2.238450309e-16
4.327028358e-14
3.343154682e-14
4.143802692e-14
3.972106692e-14
2.719055278e-14
-7.690992663e-14
-3.06399661e-13
-1.321906853e-13
-9.594698756e-14
-1.561350579e-13
-1.042384734e-13
-1.027019007e-13
-7.343837804e-14
-9.212590143e-14
-8.914054333e-14
-8.779055258e-14
-8.962456887e-14
-6.815572753e-14
-8.226705916e-14
-8.564013185e-14
-8.73129001e-14
-9.029630535e-14
-6.589214333e-14
-7.816352056e-14
-7.759412788e-14
-6.693283418e-14
-4.250443368e-14
-5.629651451e-14
-5.835593554e-14
2.582719189e-13
1.045839865e-13
1.680140258e-13
3.223049408e-13
4.307351007e-13
-7.502003673e-13
-5.995241388e-13
-4.140421315e-13
-4.946303069e-13
-2.678485005e-13
-7.317353165e-14
-2.002520067e-13
-5.794874404e-13
-5.577218624e-13
-1.579591444e-12
-5.7881809e-12
1.813883549e-12
-2.453924161e-12
-2.281093895e-12
1.784262814e-10
-2.816753383e-12
3.928372122e-24
8.240031032e-28
2.158533436e-31
5.862325e-35
1.53001323e-38
3.7365792e-42
8.498096599e-46
1.811044697e-49
3.65023881e-53
7.012550078e-57
1.289990965e-60
2.277322317e-64
3.862313559e-68
0
0
0
0
0
0
0
0
0
0
0
0
0
0
0
0
0
0
0
0
0
0
0
0
0
0
0
0
0
0
0
0
0
0
0
0
0
0
0
0
0
0
0
0
-5.335176256e-11
-1.821553456e-10
-6.116315385e-12
-6.255104822e-12
3.341349955e-28
8.787332021e-32
2.506175705e-35
7.218634157e-39
2.020468986e-42
5.376941318e-46
1.344515469e-49
3.136580563e-53
6.813930345e-57
1.384840959e-60
2.649527053e-64
4.797254386e-68
0
0
0
0
0
0
0
0
0
0
0
0
0
0
0
0
0
0
0
0
0
0
0
0
0
0
0
0
0
0
0
0
0
0
0
0
0
0
0
0
0
0
0
0
-4.312053711e-10
-1.124543709e-08
1.113832432e-10
-5.535817178e-12
3.506892728e-28
1.081897672e-31
3.598924497e-35
1.205869146e-38
3.919159028e-42
1.205738759e-45
3.454886592e-49
9.138228277e-53
2.225946484e-56
5.004026679e-60
1.043989773e-63
2.035640708e-67
0
0
0
0
0
0
0
0
0
0
0
0
0
0
0
0
0
0
0
0
0
0
0
0
0
0
0
0
0
0
0
0
0
0
0
0
0
0
0
0
0
0
0
0
-2.013320333e-08
-1.231831547e-09
-3.21732053e-10
-7.997731566e-11
2.788813333e-27
1.115824909e-30
4.970417474e-34
2.242306981e-37
9.763799651e-41
3.981878608e-44
1.48889641e-47
5.028332714e-51
1.51911974e-54
4.090923194e-58
9.860649581e-62
2.150126739e-65
0
0
0
0
0
0
0
0
0
0
0
0
0
0
0
0
0
0
0
0
0
0
0
0
0
0
0
0
0
0
0
0
0
0
0
0
0
0
0
0
0
0
0
0
-2.983986233e-08
-9.722889112e-09
6.747581009e-10
-3.564878917e-10
1.139634598e-10
1.258012109e-29
5.728891611e-33
2.730691581e-36
1.289241821e-39
5.844197883e-43
2.488484612e-46
9.775977919e-50
3.488200914e-53
1.11606264e-56
3.175584096e-60
8.023508851e-64
0
0
0
0
0
0
0
0
0
0
0
0
0
0
0
0
0
0
0
0
0
0
0
0
0
0
0
0
0
0
0
0
0
0
0
0
0
0
0
0
0
0
0
0
-8.995027956e-08
-4.721333946e-08
-3.671237933e-09
-1.676399835e-09
-2.085759947e-11
1.756869009e-28
7.531476283e-32
3.581458485e-35
1.735074484e-38
8.225267664e-42
3.724421982e-45
1.583119957e-48
6.226482855e-52
2.236229215e-55
7.246105788e-59
2.098321208e-62
0
0
0
0
0
0
0
0
0
0
0
0
0
0
0
0
0
0
0
0
0
0
0
0
0
0
0
0
0
0
0
0
0
0
0
0
0
0
0
0
0
0
0
0
-1.277014734e-08
-1.421303065e-07
-2.806358609e-08
-8.565046416e-10
-7.993500152e-10
3.601846989e-11
1.878927373e-30
8.721109891e-34
4.265119686e-37
2.07860885e-40
9.801797943e-44
4.389227493e-47
1.84064479e-50
7.143106049e-54
2.536774226e-57
8.156794684e-61
0
0
0
0
0
0
0
0
0
0
0
0
0
0
0
0
0
0
0
0
0
0
0
0
0
0
0
0
0
0
0
0
0
0
0
0
0
0
0
0
0
0
0
0
-4.978711789e-09
-8.398446912e-08
-1.561910665e-07
-1.340458147e-08
-1.315047036e-09
-4.144949041e-10
3.075929938e-29
1.334173543e-32
6.479563969e-36
3.216852266e-39
1.567353679e-42
7.323174627e-46
3.230976557e-49
1.330283737e-52
5.05906777e-56
1.75981345e-59
0
0
0
0
0
0
0
0
0
0
0
0
0
0
0
0
0
0
0
0
0
0
0
0
0
0
0
0
0
0
0
0
0
0
0
0
0
0
0
0
0
0
0
0
-2.402595383e-07
-4.548464856e-08
-3.885035091e-07
-6.779639608e-08
-4.084375275e-09
4.620337205e-10
1.146758413e-10
6.815979813e-32
3.173634516e-35
1.580419289e-38
7.897736289e-42
3.835333623e-45
1.77493214e-48
7.721319697e-52
3.12330152e-55
1.163510565e-58
0
0
0
0
0
0
0
0
0
0
0
0
0
0
0
0
0
0
0
0
0
0
0
0
0
0
0
0
0
0
0
0
0
0
0
0
0
0
0
0
0
0
0
0
1.543863706e-07
-1.426240297e-08
-3.290627781e-07
-2.25662252e-07
-1.859462975e-08
1.148931695e-10
-3.717583587e-10
1.012325809e-11
5.125775959e-33
2.520635019e-36
1.282736626e-39
6.451022032e-43
3.125625545e-46
1.435061808e-49
6.167167299e-53
2.455419957e-56
0
0
0
0
0
0
0
0
0
0
0
0
0
0
0
0
0
0
0
0
0
0
0
0
0
0
0
0
0
0
0
0
0
0
0
0
0
0
0
0
0
0
0
0
2.679732921e-08
-6.450591696e-07
-3.62953593e-08
-6.818030849e-07
-7.747007957e-08
6.887948074e-10
3.25416617e-09
2.337947723e-10
6.256254349e-32
2.855339979e-35
1.435968476e-38
7.342663372e-42
3.677297111e-45
1.764803407e-48
7.99643885e-52
3.381418341e-55
0
0
0
0
0
0
0
0
0
0
0
0
0
0
0
0
0
0
0
0
0
0
0
0
0
0
0
0
0
0
0
0
0
0
0
0
0
0
0
0
0
0
0
0
3.240271667e-06
1.316388476e-07
-1.014558135e-07
-1.350914556e-06
-2.239638726e-07
4.858599204e-09
2.185411872e-09
-3.833887097e-10
1.857322275e-11
1.993683514e-32
9.339063703e-36
4.682641311e-39
2.359013408e-42
1.156942319e-45
5.418639996e-49
2.390776284e-52
0
0
0
0
0
0
0
0
0
0
0
0
0
0
0
0
0
0
0
0
0
0
0
0
0
0
0
0
0
0
0
0
0
0
0
0
0
0
0
0
0
0
0
0
-3.382185718e-07
-3.602951534e-08
-1.062097887e-07
-1.38031769e-06
-5.027916503e-07
1.623377738e-08
6.068740189e-09
3.493502361e-09
1.943047875e-10
4.433414983e-32
1.778077472e-35
8.34009397e-39
4.082280055e-42
1.985035289e-45
9.343187277e-49
4.187282333e-52
0
0
0
0
0
0
0
0
0
0
0
0
0
0
0
0
0
0
0
0
0
0
0
0
0
0
0
0
0
0
0
0
0
0
0
0
0
0
0
0
0
0
0
0
-1.475591079e-07
-4.777003718e-08
1.463272381e-07
-9.559417287e-07
-1.728592516e-06
9.088711992e-08
2.306514147e-08
9.28300397e-09
1.714895611e-09
1.345370469e-11
2.340000321e-32
9.509611534e-36
4.334528654e-39
2.020502493e-42
9.264167001e-46
4.09098341e-49
0
0
0
0
0
0
0
0
0
0
0
0
0
0
0
0
0
0
0
0
0
0
0
0
0
0
0
0
0
0
0
0
0
0
0
0
0
0
0
0
0
0
0
0
-2.762591373e-07
-9.053415078e-08
-9.963601881e-08
-8.455237086e-07
-5.588393151e-06
3.366263789e-07
8.001388804e-08
9.317133644e-09
3.938445752e-10
2.611846025e-10
5.887110539e-29
1.804498668e-32
7.142027963e-36
3.075441303e-39
1.336086953e-42
5.669206228e-46
0
0
0
0
0
0
0
0
0
0
0
0
0
0
0
0
0
0
0
0
0
0
0
0
0
0
0
0
0
0
0
0
0
0
0
0
0
0
0
0
0
0
0
0
-6.644112969e-07
-3.218881216e-06
-3.054561147e-07
-1.243612044e-06
-1.195500515e-05
1.42487377e-06
2.819165295e-07
7.497155232e-10
5.4667558e-09
4.868775717e-10
1.679892274e-28
3.213893866e-32
9.928589515e-36
3.750121976e-39
1.49828291e-42
5.960426319e-46
0
0
0
0
0
0
0
0
0
0
0
0
0
0
0
0
0
0
0
0
0
0
0
0
0
0
0
0
0
0
0
0
0
0
0
0
0
0
0
0
0
0
0
0
6.293211114e-08
-1.680895391e-07
-2.711634713e-07
-2.822469357e-06
4.831191316e-06
6.50772865e-06
8.928740959e-07
8.820805798e-08
1.235529201e-08
8.618076972e-10
1.197062877e-24
1.17770614e-28
2.381680128e-32
7.26500989e-36
2.602341552e-39
9.661166597e-43
0
0
0
0
0
0
0
0
0
0
0
0
0
0
0
0
0
0
0
0
0
0
0
0
0
0
0
0
0
0
0
0
0
0
0
0
0
0
0
0
0
0
0
0
1.546553524e-06
-8.248367046e-07
-9.214130148e-06
-0.0001096160907
2.515032758e-05
5.366371891e-06
5.78883677e-07
4.903815915e-08
9.880781549e-09
4.690092077e-10
-6.009028497e-11
7.897123325e-25
8.481629147e-29
1.769764783e-32
5.293418287e-36
1.808280051e-39
0
0
0
0
0
0
0
0
0
0
0
0
0
0
0
0
0
0
0
0
0
0
0
0
0
0
0
0
0
0
0
0
0
0
0
0
0
0
0
0
0
0
0
0
2.460379646e-06
-9.791704529e-06
-1.51508609e-06
0.0001406196778
4.886992484e-05
5.226639811e-06
3.67307864e-07
2.799028985e-08
4.531656684e-09
1.467739949e-09
2.0833604e-10
6.681435406e-11
4.300282414e-28
5.064930346e-32
1.097361202e-35
3.246382062e-39
0
0
0
0
0
0
0
0
0
0
0
0
0
0
0
0
0
0
0
0
0
0
0
0
0
0
0
0
0
0
0
0
0
0
0
0
0
0
0
0
0
0
0
0
-0.000275749174
-0.002257578251
0.0002314555605
0.000180073456
2.312132102e-05
1.750747745e-06
1.077626542e-07
2.887416504e-08
-1.620532395e-09
1.672632741e-09
-1.660127228e-10
3.114393698e-10
-1.562008809e-10
2.81699568e-28
3.59033192e-32
8.001913451e-36
0
0
0
0
0
0
0
0
0
0
0
0
0
0
0
0
0
0
0
0
0
0
0
0
0
0
0
0
0
0
0
0
0
0
0
0
0
0
0
0
0
0
0
0
-0.001577343784
0.0007782307186
0.0004169438453
6.778691439e-05
6.809723845e-06
4.846086399e-07
9.545471127e-08
-2.802096325e-08
-3.439244809e-09
-3.992761834e-09
1.065746396e-09
-1.848196576e-10
1.904133515e-10
5.937816103e-12
1.874149823e-28
2.546953151e-32
0
0
0
0
0
0
0
0
0
0
0
0
0
0
0
0
0
0
0
0
0
0
0
0
0
0
0
0
0
0
0
0
0
0
0
0
0
0
0
0
0
0
0
0
0.0007344623296
0.0003887839368
9.23415307e-05
1.34793367e-05
1.333510012e-06
1.032496344e-07
-4.841144015e-08
8.391171991e-10
-5.085071748e-10
-4.320693005e-09
1.031099937e-09
8.136750145e-10
-1.940207877e-10
-7.236782565e-11
1.329724987e-27
1.073315524e-31
0
0
0
0
0
0
0
0
0
0
0
0
0
0
0
0
0
0
0
0
0
0
0
0
0
0
0
0
0
0
0
0
0
0
0
0
0
0
0
0
0
0
0
0
0.0001373596069
5.666193267e-05
1.29360394e-05
1.906355549e-06
2.009420081e-07
-5.500561966e-08
5.09916665e-09
8.307990321e-10
-3.595592715e-11
-8.311202487e-09
-4.276296053e-09
9.350040867e-10
8.772773959e-10
-1.182684169e-10
-2.328456301e-11
8.389863203e-28
1.35609374e-37
2.454475645e-41
6.998874579e-45
2.240409623e-48
7.273006401e-52
2.30601924e-55
6.990647335e-59
0
0
0
0
0
0
0
0
0
0
0
0
0
0
0
0
0
0
0
0
0
0
0
0
0
0
0
0
0
0
0
0
0
0
0
0
0
1.580092284e-05
6.262854766e-06
1.451423517e-06
2.283655725e-07
3.166599887e-08
5.080338301e-08
-5.343137831e-09
1.281421368e-10
-1.369893722e-10
1.8707124e-10
5.43976309e-10
-4.493114872e-09
9.139117691e-10
9.278594175e-10
-7.61702239e-11
5.860814837e-11
1.968901797e-32
1.846336581e-36
3.34427928e-40
8.559713169e-44
2.5327977e-47
7.800559675e-51
2.372170063e-54
0
0
0
0
0
0
0
0
0
0
0
0
0
0
0
0
0
0
0
0
0
0
0
0
0
0
0
0
0
0
0
0
0
0
0
0
0
1.655268266e-06
6.258403274e-07
9.852115067e-08
1.926965105e-08
4.129083872e-09
1.278471705e-09
3.108470391e-10
5.391455787e-11
-5.181671866e-11
-7.255290766e-10
3.923616144e-09
5.562566042e-10
-4.623304179e-09
8.942455772e-10
9.788179334e-10
-1.725046245e-10
7.44168606e-11
2.479959509e-31
2.357083223e-35
3.98232843e-39
9.618233536e-43
2.721386194e-46
8.060336013e-50
0
0
0
0
0
0
0
0
0
0
0
0
0
0
0
0
0
0
0
0
0
0
0
0
0
0
0
0
0
0
0
0
0
0
0
0
0
1.463903824e-07
5.189915057e-08
1.472720605e-08
5.01170025e-09
1.179021828e-09
3.02545629e-11
-1.469001354e-10
-2.685392584e-11
2.48257291e-11
3.089069304e-10
-5.489644033e-10
3.310932309e-10
-4.27709817e-09
-4.142401896e-09
1.527384557e-09
1.077542862e-09
-8.268044713e-11
1.912606773e-27
1.433374725e-31
1.450648053e-35
2.549337739e-39
6.184817294e-43
1.722911255e-46
0
0
0
0
0
0
0
0
0
0
0
0
0
0
0
0
0
0
0
0
0
0
0
0
0
0
0
0
0
0
0
0
0
0
0
0
0
2.10481749e-08
7.775336692e-09
-1.011077602e-09
3.653238612e-10
5.984535779e-11
-4.923489641e-11
1.72767504e-11
-8.936421104e-12
4.514077765e-11
1.008671522e-10
1.089306358e-10
-5.234278384e-10
1.640148847e-10
-4.191214907e-09
-1.176505786e-09
1.118394544e-09
9.129011819e-10
-7.606222825e-12
1.111507001e-27
8.058966192e-32
8.645261658e-36
1.561009979e-39
3.772688587e-43
0
0
0
0
0
0
0
0
0
0
0
0
0
0
0
0
0
0
0
0
0
0
0
0
0
0
0
0
0
0
0
0
0
0
0
0
0
4.528427675e-09
4.596554387e-09
5.216892285e-09
1.317012837e-10
7.567178241e-11
1.439953396e-11
6.200510263e-12
-1.892831612e-11
2.517808264e-11
-2.544885956e-12
1.632219924e-11
-5.477105585e-10
3.692878556e-10
-3.055686225e-10
-4.178607004e-09
-1.124458043e-09
1.22435942e-09
9.921190991e-10
-8.408148637e-11
5.121547352e-31
3.645680049e-35
4.198061379e-39
7.843390563e-43
0
0
0
0
0
0
0
0
0
0
0
0
0
0
0
0
0
0
0
0
0
0
0
0
0
0
0
0
0
0
0
0
0
0
0
0
0
7.76457045e-10
-3.765751043e-09
2.290464162e-10
8.007301658e-11
5.215049602e-11
9.987375727e-12
5.301115081e-12
1.108070418e-11
-5.318151029e-11
-3.761626499e-12
-5.265520337e-11
7.247840251e-11
-5.537764926e-10
6.529097985e-10
5.927733029e-10
-4.530195344e-09
2.09077804e-09
9.994434107e-10
1.063839341e-11
-5.572738224e-11
2.509683318e-31
1.796245429e-35
2.185894161e-39
0
0
0
0
0
0
0
0
0
0
0
0
0
0
0
0
0
0
0
0
0
0
0
0
0
0
0
0
0
0
0
0
0
0
0
0
0
1.758222407e-10
9.775422164e-11
2.740640236e-11
2.695716739e-11
2.996952762e-12
-6.596702623e-12
3.034622321e-11
-1.047934033e-11
1.059530714e-11
-2.804933895e-12
3.305922089e-10
6.248047853e-12
-1.199098788e-10
-5.573295414e-10
-7.245295225e-09
-4.141859218e-09
-2.599822987e-10
1.252952453e-09
9.725759512e-10
-4.812904279e-11
1.42949673e-30
1.083725428e-34
8.021467378e-39
0
0
0
0
0
0
0
0
0
0
0
0
0
0
0
0
0
0
0
0
0
0
0
0
0
0
0
0
0
0
0
0
0
0
0
0
0
5.22859061e-11
3.207525247e-11
1.079722397e-11
8.231103604e-12
9.016325152e-12
-2.544946471e-11
1.000481792e-10
-7.287829231e-11
-1.867138478e-11
1.158301859e-11
6.826702661e-11
-1.050754471e-11
-9.279204867e-11
-6.022469342e-10
-6.321887787e-10
3.454243368e-10
-4.359856411e-09
-1.098023979e-09
1.238213875e-09
9.86313276e-10
-7.708892636e-11
7.137071904e-31
4.766577425e-35
0
0
0
0
0
0
0
0
0
0
0
0
0
0
0
0
0
0
0
0
0
0
0
0
0
0
0
0
0
0
0
0
0
0
0
0
0
1.474267701e-11
1.117881918e-11
2.144962754e-11
2.892173625e-12
-1.964999332e-11
1.733931979e-11
-1.945899981e-10
3.751853844e-11
7.778925703e-12
4.481460507e-11
8.28730744e-11
5.277797137e-10
-7.370735444e-11
-1.181783263e-09
7.0822839e-11
1.653074441e-09
8.758107127e-11
-4.037268691e-09
1.347370111e-09
1.050270123e-09
3.437042737e-11
2.903763831e-30
3.115884411e-34
0
0
0
0
0
0
0
0
0
0
0
0
0
0
0
0
0
0
0
0
0
0
0
0
0
0
0
0
0
0
0
0
0
0
0
0
0
-3.323100862e-12
-1.363857015e-12
-3.699331083e-12
-1.097532975e-11
-6.332938367e-11
1.642814613e-10
-1.016124274e-10
3.072422514e-11
4.15701526e-11
-2.401807053e-11
-2.851354497e-11
7.9072836e-11
-1.70497878e-11
-8.197195264e-11
-8.957036638e-10
-4.645795193e-10
1.559215409e-09
-4.285972534e-09
-1.301152608e-09
1.262335129e-09
9.869322727e-10
1.135452635e-11
1.586619441e-30
0
0
0
0
0
0
0
0
0
0
0
0
0
0
0
0
0
0
0
0
0
0
0
0
0
0
0
0
0
0
0
0
0
0
0
0
0
-3.719752846e-11
-3.990138153e-11
-6.330474583e-11
-5.340121274e-11
-1.258958246e-10
-2.108979342e-10
1.736595756e-09
-3.044338182e-10
1.896451684e-10
-1.10251615e-11
-4.139805192e-12
1.010570185e-10
5.824152487e-10
-2.309702093e-11
-1.859433652e-09
1.620376722e-09
-6.902478194e-10
3.06452499e-11
-4.347831795e-09
1.224239273e-09
1.17182593e-09
1.071678726e-09
1.439002325e-11
0
0
0
0
0
0
0
0
0
0
0
0
0
0
0
0
0
0
0
0
0
0
0
0
0
0
0
0
0
0
0
0
0
0
0
0
0
-5.212751584e-11
-2.38888808e-10
-8.91006936e-11
-4.214994144e-11
6.864493402e-11
-1.099784003e-10
-8.219093671e-11
-2.16989362e-10
9.265352513e-11
-8.956707489e-12
2.030058985e-11
-1.921791156e-11
5.163591646e-10
-2.686675855e-11
-6.887870589e-11
-7.429848749e-10
-1.476775776e-08
6.640722856e-10
-4.467091882e-09
-1.399603304e-09
1.165328719e-09
1.026953907e-09
6.650207418e-11
0
0
0
0
0
0
0
0
0
0
0
0
0
0
0
0
0
0
0
0
0
0
0
0
0
0
0
0
0
0
0
0
0
0
0
0
0
-1.554960284e-10