/*--------------------------------*- C++ -*----------------------------------*\
  =========                 |
  \\      /  F ield         | OpenFOAM: The Open Source CFD Toolbox
   \\    /   O peration     | Website:  https://openfoam.org
    \\  /    A nd           | Version:  10
     \\/     M anipulation  |
\*---------------------------------------------------------------------------*/
FoamFile
{
    format      ascii;
    class       volScalarField;
    location    "0.02498436188";
    object      ddt0(p);
}
// * * * * * * * * * * * * * * * * * * * * * * * * * * * * * * * * * * * * * //

dimensions      [1 -1 -3 0 0 0 0];

internalField   nonuniform List<scalar> 
5170
(
67322.50205
-49801.31321
-39344.96013
15191.55954
-78995.79149
-28102.68269
-31432.89788
-25393.55622
-22722.67366
-16421.95133
-23165.76792
-20391.42971
-20190.25298
-13383.37081
-21998.98912
-23234.29982
-21778.12545
-22020.92952
-22359.80514
-22408.47557
-22964.63842
-22611.87057
-22603.01745
-28928.54897
-22602.9541
-21579.91053
-21907.87032
-21440.94418
-22273.70354
-20514.87744
-23146.91112
-21858.60859
-23140.55212
-27540.53543
-21705.43219
-21246.97888
-22930.01677
-21810.68568
-20971.73984
-20396.43182
-16469.42901
-16853.39477
-13053.56231
-18365.99093
-15810.4425
-15587.80107
-15824.93831
-6186.007018
-15885.02175
-14224.4366
-16158.16559
-16790.93553
-25238.80088
-16480.67046
-16211.64374
-12106.68307
-12248.83272
-6388.913619
-12189.42411
-10537.48458
-8044.830527
-9331.653873
-18823.77666
-9098.77604
-8970.300542
-6133.50667
-6362.936255
1271.731667
-6345.331598
-3911.542955
-5220.328336
-5229.423719
-12833.07921
-5434.536153
-6713.428116
-4444.567488
-5325.421491
906.1495706
-5591.432631
-1618.19393
-4704.159053
-4494.082514
-9832.307012
-4448.031174
-6173.123642
20.42823344
5781.632283
4609.535225
-772.0656263
3895.02746
-18447.1405
-12266.37793
-247.5688544
-13317.79059
-14595.00385
-83314.78994
-107080.152
-56938.40863
-31735.99725
-91992.81646
35132.57576
17618.57185
-16043.18293
58042.9482
-56317.05596
-12293.98798
14071.17691
-25293.32314
7236.697515
23109.75184
1111.02018
-13973.20896
15574.14341
1333.652471
16734.72706
-10201.28405
1792.962201
-7269.892767
-4911.957753
-3821.495958
9319.052466
-977.9447625
10360.1411
625.6188097
9817.790754
14548.43839
16945.38918
10451.52791
4751.748331
6025.969752
-948.9171029
-1133.010516
-3959.635545
-5694.676987
3077.045892
-3258.765702
-3993.602799
-2654.50134
3964.394889
7825.246949
-1096.429573
11647.46229
11833.07785
-4450.270856
5203.636766
16168.03241
-3293.605709
1953.716627
4490.882228
5754.01665
3081.414277
-1729.161469
-618.1760239
-160.7211369
-1974.771609
428.6163799
1143.415446
3843.365617
2942.691507
-6311.812104
-4073.782598
3572.624835
-1310.505464
-2667.853396
1025.534315
27627.59806
-38064.66536
5684.354976
49626.86969
-25546.57121
-81294.30499
133651.6938
-98813.96079
41557.5787
3963.653587
3760.857203
70901.42609
-154093.8837
9751.703381
68527.72177
-29797.13173
118498.4295
-96230.67945
-169281.3886
170596.2686
18650.05855
23418.39098
-23551.78481
-37429.43492
17876.20711
-55914.09428
-83598.65436
49550.2886
202159.8142
-129373.7501
498022.0244
-544494.8373
-266305.9933
591760.8934
-234604.0246
-273103.9463
19342.85144
-139733.2572
-144998.4958
332251.4489
237086.8754
-303757.0489
28549.12478
68436.43489
-442130.9988
-63084.92609
59852.33601
116675.4735
-71357.87912
-149268.0313
-324782.6805
129256.3234
-65303.28097
54447.2611
-264662.3021
-22109.04467
25626.39496
-48646.47834
-11133.10162
218954.8231
1197.768089
6823.94021
-10882.20939
-19666.81818
91245.45938
83163.14578
-86902.72128
148890.6509
-185938.9048
174754.261
251239.7869
15108.62479
-61828.72368
22507.47107
65287.38214
364733.2252
-72506.78972
-117571.4913
168571.9849
95435.63457
-174619.9971
-25938.3889
89867.16167
57910.91626
115850.7035
-58099.40587
-19528.35755
10066.59833
45552.0027
150535.1433
220792.1578
81928.12521
-16562.94655
-105446.2772
17702.65963
97839.03427
108202.7779
67405.8625
-40217.55764
-132203.5045
-144396.8337
35512.43514
151732.1374
146580.1624
10256.42298
137233.7805
68625.24992
189149.1522
71841.17823
-84343.50906
-232525.3817
-42717.49471
201858.7414
296232.595
313973.7967
-129821.2006
-98343.91529
-58270.4199
24030.49393
45712.96047
205603.7301
159019.7713
103171.5767
52070.34203
-45009.90445
55228.61083
151821.0691
178817.5862
189060.7542
194923.7333
-45659.21867
85915.47102
59583.23561
63926.86169
148583.9765
48194.62127
29848.5996
30617.96648
40487.68384
6821.799736
65009.74025
29049.48245
72640.97597
46000.10323
47436.90324
17790.63667
75767.10728
54898.10582
46840.6419
69809.53707
15556.09354
53017.35004
52260.20506
62677.41064
-9582.8385
10807.48249
52414.49775
38468.15842
21060.01679
125537.6099
26113.13265
24425.22434
40523.10967
16985.09973
45528.98867
7490.270517
33019.76929
21777.80237
3432.994163
75390.88896
53955.30068
-13822.92984
23133.74138
14813.04601
-831.3581345
29805.33439
-14234.32576
16300.63867
8838.578165
-14152.96873
-16151.94905
8426.993071
3878.775767
-2361.192103
19876.77924
14053.20711
-12182.99986
6330.499397
-7117.589136
22384.79804
-3814.708804
1140.261148
-5992.796176
8034.483607
-39121.66858
22379.04893
-9413.379501
-6300.149589
9203.181428
-29353.46692
-483.1528557
-8375.114097
6597.801437
1405.25101
-32413.60603
2761.49802
-168.6987174
-271.1805808
-1356.090648
2405.234111
9953.835642
-2307.692307
-6566.568681
11679.5516
-15370.07712
-2086.015786
4035.870036
-1483.616222
1491.552525
-3847.464909
-2893.240623
5358.821787
-3670.551012
5425.381634
-16076.868
21151.84215
-8646.642517
-4149.868631
6158.825125
10568.06844
-12779.91267
2881.769951
5997.555011
-8926.733761
8947.543059
-4597.945193
1974.082644
-713.7089584
-2326.159074
-1158.186891
3479.753895
-1396.001695
-3463.30054
2771.925557
-11187.3141
-10712.67414
2795.36424
-823.4417019
-206.2906662
-14624.17707
-3353.705584
-398.3400872
-1051.732723
1238.259067
-15405.26004
-7190.518955
1695.66378
310.86141
-1538.349725
-4255.678798
121.4604546
-1164.180808
-830.8967204
-213.5431458
3987.40133
-4266.643516
399.8321363
258.7712742
-147.8408396
227.4988096
-3806.722489
142.897652
833.5501413
-247.4010749
-5679.915469
-3753.951489
830.2873869
48.38701224
756.5227574
-9844.728447
-1692.865069
153.2797744
558.2295338
-1437.547136
-2547.543932
814.479807
-1450.582554
-161.5592847
16.24946667
-208.5733663
1381.971147
-699.1677519
-1882.054558
-318.4444758
8756.178299
-7412.749285
767.604578
2055.086446
-3763.080124
5788.570408
1271.375464
-1310.3874
-659.7409389
229.5996928
-7544.39578
-6202.225398
2520.050822
-2682.236318
570.27604
-1272.430007
-5141.96111
1089.398787
-491.8527342
-1226.371099
-1343.176063
1681.588143
-1244.439465
-490.0568965
-2458.195469
10069.08614
1119.231849
-817.5732766
-486.4309042
-1740.097713
9308.067278
802.9872354
-336.0324549
-694.1053374
-883.8281396
8521.351525
-507.31561
333.2831308
57.35966009
-1046.09075
6773.438166
307.3955538
421.5832282
293.0855763
-1010.529293
5806.168306
1849.691403
754.756261
-455.366587
-691.7025809
5994.75494
1274.861089
598.8520501
-340.2905134
-622.4496998
10774.93504
-477.8140182
928.3474089
875.664449
-1378.894487
8649.333459
1421.141263
-779.1759479
1237.342822
-372.3834643
1868.946593
-859.3547851
879.8961126
340.3666958
-9.231237864
1356.796426
377.1356994
288.0869494
1.525120947
516.9040621
1569.025626
-398.6781185
699.6065223
40.03268172
318.0266808
186.5746776
240.4540195
427.9050062
-190.6158491
584.8005294
-132.4055641
-201.6809631
396.8918065
196.9105733
214.0483097
-423.0167987
-1976507.763
2464085.366
1815000.824
1650700.485
252343.702
414741.9163
163931.2716
89886.82961
51057.15745
87875.80366
145076.2423
17195.81896
310990.0737
57910.62331
59673.60626
-488672.7958
394190.262
-129407.3093
457621.6843
114445.3797
128303.3795
44979.66969
-43795.41649
209075.3345
-268753.0612
-28102.74358
-152765.9807
62215.98528
69285.81132
-57489.10253
-79665.55317
129600.8299
82100.1949
110172.4362
-6999.471495
42021.55999
19096.9749
59208.81648
-52312.20578
-22463.97372
6697.899575
35359.93905
48405.61765
51526.85746
13564.63417
-19228.89341
-5358.782503
19014.60091
34321.46069
10429.86755
-1717.001916
-36837.70897
-21370.37847
25093.5363
-1326.140661
3080.199085
-37954.97055
-35110.59915
-31833.92852
-23222.44816
-19235.78474
-19062.02577
-38014.18433
-27951.71795
-4418.137149
-3141.318976
-5099.496969
761.1398106
1007.904716
2534.656564
1433267.594
-2377926.51
989155.7561
-1159557.105
433882.8016
724555.8176
-171768.6708
1485592.697
-759232.5396
205727.887
801790.1916
17483.85273
1776510.301
-2412545.026
1117153.055
693433.0544
482832.5468
-158328.7677
-384165.602
615926.8583
395852.5701
422055.5185
-363118.7813
567406.8368
79230.56542
386583.3735
153234.0217
-96287.44856
99097.06165
115431.1017
170749.0318
258199.3809
72717.98484
230340.3833
-313832.6315
290181.4678
158211.6312
-176937.4295
510324.7878
-258520.3755
148360.1414
203425.4816
-87347.66224
79557.1185
342337.5557
80284.11998
-161028.7946
191781.1238
-197180.1296
198510.9415
141618.5334
-60588.06695
87335.89635
-93526.64097
-349780.3534
128792.439
89308.79578
211545.6274
168349.7635
26849.22079
122263.4468
19750.01384
-217526.1775
515589.4128
-190856.9612
-88521.37551
173172.753
31146.75028
-245555.7908
313907.6621
-36621.85016
260807.7329
126577.9315
-258971.5584
346491.0591
-131045.0094
-120144.8453
497718.8516
339474.8653
-350924.7886
170964.9128
176042.5662
-31919.46026
-197043.5375
489346.6827
-102966.4161
-58407.87474
135132.9132
276140.867
3849.498157
264352.6773
256662.5523
113797.8382
-129471.7985
-366997.0768
204092.6702
274474.6386
358838.5583
448647.2765
541298.0612
34547.36165
60829.962
49532.68128
56556.10251
49110.64654
45902.21219
62406.24433
43336.11439
52543.7828
40820.02048
61975.68951
46655.00609
48035.06634
45530.94902
43807.14043
29781.76198
46707.95527
38949.72148
37933.41827
39170.24608
60636.03874
33688.74046
34922.21314
30660.57999
32974.2656
35204.28525
25129.11261
26556.44574
24537.52758
25037.19348
36983.38841
13739.82317
20781.30507
16153.48123
16669.04868
7717.331694
12171.02175
8775.903519
11943.06985
8502.907345
1843.55395
4295.455195
5841.36698
3391.071504
4652.119288
5984.982273
1007.916131
916.433188
239.4036654
15.24210512
5693.18499
-1329.410937
-2310.464019
-1026.937029
-2610.913691
-12202.27343
-2420.477953
-1644.671927
-2982.078091
-2629.149753
-7286.188512
-2663.650641
-807.1876259
-3607.284806
-1290.724759
-10945.84598
1639.59418
-4103.287799
813.6027561
-2651.32699
892.1784215
-1625.59122
499.2193328
-900.6200549
-272.7162702
-3535.431034
1881.901419
-1039.381337
1684.916358
-895.3421282
-401.9403875
-518.0098754
2704.618673
-1466.865296
1662.172958
-3873.612828
482.1441783
226.2948235
774.2713907
-94.11857991
4208.217714
1188.822961
-1632.159964
1756.780281
-1093.898481
1389.184602
-161.5534642
-706.9613968
-172.8677474
-80.71006944
-958.8118313
-1786.155242
918.4330453
-2105.894481
-169.198442
-3736.8478
-1337.587889
-547.7156289
-1691.707593
-678.3017804
-5129.033091
-774.3443536
-1674.885449
-448.6091044
-1614.388053
-5412.655014
-620.4433023
-937.6315612
-1095.670183
-800.4539631
-1866.955066
-656.1631659
-779.4963127
-697.2672086
-679.1760778
792.275924
-120.370817
-1310.87123
322.1521384
-1233.176013
-141.3454253
513.1447484
-1569.703445
418.2275779
-1004.659014
-1991.311284
105.4841923
-1049.44941
361.7883486
-903.8541025
-3220.395951
-62.07654137
-407.0130779
-340.7290306
-235.5582191
-1161.911582
-654.5396516
223.3823141
-997.1323176
133.362604
-461.565642
-177.6948768
-499.6508211
-476.9051119
-363.1198497
2498.973433
-537.3506874
-651.3969996
-388.8374581
-565.4356237
1029.30896
-464.4059908
-947.6622158
-132.0639067
-1060.536689
-2746.54871
-507.8935552
-648.0472785
-966.0454012
-694.0722162
-715.7035191
-679.7689432
-930.5193639
-627.3724431
-908.4066579
-1152.517377
-535.8413364
-873.6047984
-526.2640986
-819.9569222
2591.609707
-887.1556521
-439.334084
-601.8916309
-593.5087675
2515.055239
-587.6617304
-268.3488252
-449.7591523
-336.6169993
2425.519815
-301.9840371
-143.5430489
-90.02371622
-242.0528702
1795.686475
109.0936487
10.09468017
-21.80545698
149.3304473
1879.814665
58.28587378
241.550449
260.7567836
172.6458585
2138.168459
-154.9458627
671.5924914
198.919483
342.0335262
3643.227268
208.3349304
430.6993135
562.6930199
372.2510034
2834.327571
324.9028458
359.2455746
362.1719101
305.8250238
704.6293876
313.3147377
332.6877655
336.1417455
321.3512138
593.5689189
298.6132962
336.5857486
272.3786842
321.2610929
704.9375998
338.6719767
231.969705
315.9781317
268.8321566
160.1528659
366.9242297
159.3993113
368.2137194
208.0922949
136.6559748
261.0417909
176.5316952
256.8719773
188.1232291
17.74973653
196.4672655
193.1244358
196.8380295
200.4651111
-15485.0844
5729.420237
-7815.96456
5601.295968
1229.734829
-2685.250737
2554.899863
-381.848802
1715.710677
477.7702531
1367.89015
1024.24078
488.8011251
1158.527256
1473.464282
1563.680294
1835.577021
1982.482009
2180.785929
2392.597149
2586.134002
2811.237105
3018.733781
3219.792026
3429.649805
3637.415766
3834.822114
4015.774171
4180.740489
4331.934755
4462.549179
4563.092679
4625.254828
4642.385235
4614.287417
4549.435846
4445.786893
4296.238611
4099.264687
3851.719666
3557.909535
3214.463454
2831.755835
2428.40422
2031.624329
1634.221464
1224.561228
830.1351085
471.2635926
133.7152383
-166.9987531
-420.0747585
-632.3357314
-796.3524872
-911.4661839
-976.1123613
-1007.208871
-1028.914609
-980.7065838
-817.1933067
-67190.60577
24293.9141
-7805.052473
8317.492859
-4045.987235
4769.119855
-1947.020334
462.1562567
193.8983907
763.9619137
478.8498872
556.9381636
656.4705322
632.9923804
640.355295
1076.071327
1375.145272
1421.14682
1606.829694
1850.19101
2025.99668
2206.400879
2417.365887
2640.68203
2860.296071
3077.593563
3285.860017
3490.408691
3681.963945
3852.942337
4000.862676
4122.027082
4213.498987
4270.996988
4292.267958
4272.303803
4206.814155
4092.37186
3928.624731
3717.047003
3460.502457
3163.929216
2831.023553
2468.91453
2082.723919
1686.9682
1294.236508
912.6823264
552.0392266
219.0560765
-80.74779026
-340.7523425
-558.0710749
-726.8474926
-848.9661157
-923.6373224
-954.9867769
-959.2606186
-910.0203654
-757.076804
25987.35473
-55994.92806
4528.392422
2963.542213
3566.865252
-781.7919917
2884.642301
-1855.949828
-530.4218739
256.4837223
-697.6709822
198.435921
-64.23317214
140.1160874
57.17329973
129.3243403
471.2170704
620.5988176
719.415885
867.3107769
1019.20465
1213.307421
1416.623811
1624.379716
1839.350185
2057.649704
2280.825047
2506.416805
2723.749747
2928.369396
3118.006776
3290.20912
3437.552621
3556.678434
3641.028548
3686.97049
3692.219236
3651.831298
3564.366179
3429.244039
3247.228327
3021.107541
2754.307435
2451.264515
2120.327899
1770.915707
1412.87138
1056.697155
711.63629
385.7212914
86.27366242
-181.0305818
-408.6994949
-592.7615717
-732.5254495
-821.876367
-867.1758748
-883.8840617
-840.1652093
-756.9683351
-178345.5721
26861.17622
-4915.972105
2760.476845
53.46289173
-38.08563849
-971.4728372
-1222.427374
-80.02182301
-1324.128471
-401.1531412
-465.4340229
-1058.262619
-869.024281
-796.0722364
-693.9033349
-618.9758774
-489.2609884
-426.0197934
-350.8470754
-218.1883402
-76.75184356
81.30954317
261.9489571
459.2164665
677.6835765
906.7989267
1146.141615
1391.175731
1634.425799
1875.604096
2108.979078
2327.975626
2527.350798
2701.104196
2842.539618
2948.805578
3014.123453
3034.281712
3007.101172
2930.969713
2806.168102
2633.608337
2418.493832
2164.59593
1880.452527
1573.670908
1254.829557
933.1469004
620.0355979
323.5954487
46.76301696
-196.729577
-406.147154
-575.5737484
-691.6025983
-771.0499872
-802.4940799
-768.1277389
-670.622645
-130364.6753
33071.86405
-6865.862381
3511.833599
-1355.458574
-426.3985941
175.2901209
-1938.298971
-488.5528493
-1074.430654
-1534.677333
-1212.220038
-1548.245108
-1909.426757
-1636.307746
-1482.361481
-1725.826304
-1809.971258
-1687.439232
-1660.641244
-1633.2222
-1559.349799
-1444.204687
-1317.524141
-1158.579487
-963.3857485
-738.4500937
-493.6061386
-229.1548229
55.47293171
345.6823485
643.552884
942.2101438
1235.021179
1511.990083
1770.435079
2000.351632
2194.521759
2348.449504
2454.265758
2511.315845
2515.008847
2463.765157
2359.939203
2204.519096
2003.80967
1764.068049
1494.386799
1205.050219
909.7433465
609.9052361
322.0002689
61.34974298
-183.9485958
-387.596348
-544.179093
-655.8024455
-717.2494307
-758.8123995
-659.6742828
-45917.31118
6850.237696
-7713.774546
4679.028456
-308.260808
-341.1510895
11.55645622
-974.4591041
-930.9889838
-1822.752395
-1280.574382
-1564.753868
-1887.660662
-2081.238685
-2324.730157
-2535.851577
-2498.342453
-2740.747902
-2894.118568
-2926.29678
-2973.222874
-2991.991798
-2968.504029
-2908.11293
-2811.136468
-2680.0112
-2496.236695
-2264.884816
-1999.847749
-1696.312739
-1363.987216
-1003.739555
-628.0825282
-239.1892765
153.9061745
533.3880691
897.179056
1229.297291
1533.277792
1789.794133
1992.744215
2143.895766
2234.838191
2258.076716
2220.816247
2118.530379
1960.520214
1752.674851
1507.830672
1225.001209
923.1728572
632.9003357
338.0578803
60.93779862
-176.7718092
-393.3959147
-552.8161043
-659.0804659
-746.5279648
-691.3935209
126846.5591
-12350.58307
-25630.63473
6738.502563
1968.989473
1788.405484
774.1109099
422.9685129
-795.6551843
-836.711966
-1305.394121
-1134.399103
-1950.785699
-2115.249599
-2137.581976
-2840.403337
-3080.717137
-3271.742685
-3584.128768
-3872.306657
-3953.020832
-4132.95154
-4278.989816
-4329.411925
-4302.237687
-4247.596621
-4162.135707
-4000.086468
-3750.685034
-3470.122844
-3115.460505
-2714.770496
-2277.33522
-1809.235016
-1304.746617
-820.0326432
-310.0078658
166.1373339
619.4009757
1036.234337
1394.819424
1703.37061
1943.422958
2103.868796
2188.243632
2206.229317
2136.726201
2002.050585
1809.084398
1550.698301
1267.449122
951.635113
629.5071371
312.1828017
17.9278179
-291.8013599
-481.1841678
-634.4129016
-749.0188312
-719.9457493
16983.6489
61554.99318
29921.55882
-34407.87499
20965.12796
-3746.984221
3536.24783
897.9280112
749.9434941
437.0347945
-289.4037434
-714.9288774
181.5972002
-1611.910346
-2349.401082
-1996.723505
-2759.150793
-3563.747223
-3708.904918
-3917.534245
-4597.426588
-4578.536821
-5051.188095
-5420.217487
-5451.058443
-5523.491219
-5520.145883
-5482.223244
-5311.868354
-5075.803971
-4755.120048
-4350.555474
-3888.180811
-3378.894158
-2826.448645
-2177.468145
-1607.444703
-943.2461255
-378.3336826
213.6398524
722.8214168
1224.335003
1598.295278
1904.220504
2143.073066
2248.340094
2269.357108
2225.374211
2141.203262
1869.249587
1533.056495
1243.388932
883.4845181
518.0802102
162.2745816
-157.5344528
-415.4235591
-629.5810127
-771.3382868
-790.5155885
-208284.5368
-2438.725486
64192.9326
10478.13992
-6755.884334
7760.562502
3621.932626
4136.469834
3240.827791
476.785583
4466.627838
1063.543425
-989.326731
1540.916746
-405.4139046
-2076.510593
-1769.029735
-2196.937349
-3465.89511
-4071.318198
-4302.336722
-4631.896792
-5138.718879
-5309.517922
-6048.658719
-6242.939156
-6444.333098
-6536.75124
-6494.459913
-6382.023029
-6224.479258
-5788.915954
-5330.168239
-4880.791191
-4278.453353
-3497.939882
-2816.326783
-2166.88758
-1288.316076
-690.5449925
77.67455279
573.2757613
1390.629807
1685.831625
2036.482733
2283.380232
2394.829652
2398.382516
2313.664009
2113.728876
1834.174925
1489.970957
1100.024113
696.0557796
297.3527784
-76.53367471
-402.8117657
-666.2049857
-847.3241014
-902.8632109
60136.11949
74359.49327
-38206.76301
25574.78536
-14535.73452
18354.58414
3544.701341
5195.588855
11107.99122
4091.280542
1184.684252
8126.226962
3022.404423
279.9286519
2045.393907
1345.193751
-639.4573717
-978.1830601
-1695.233278
-2891.468124
-3509.892857
-4023.528335
-4681.761693
-5291.292662
-5813.362239
-6283.910138
-6706.543221
-7014.811825
-7183.143474
-7226.480701
-7154.223445
-6934.814182
-6577.306156
-6095.872482
-5487.083714
-4759.785578
-3961.944377
-3112.216716
-2239.515916
-1379.849224
-595.5626301
209.6617862
867.876185
1420.75073
1873.585662
2209.234344
2420.678746
2504.543301
2462.378727
2297.045005
2027.811889
1674.554807
1264.895616
823.0850623
376.7247612
-48.53588948
-426.6507644
-739.7695694
-964.6889939
-1052.299769
88009.39205
82276.37955
-43245.81535
-47305.33142
26647.93788
-269.4090217
15730.81377
8358.682066
8028.196249
11171.50872
9434.725584
7117.310615
4705.533248
5299.17018
5524.127471
3578.459139
1987.52458
1617.295267
601.1257421
-820.7625489
-2050.719758
-2753.29219
-3500.806148
-4336.243671
-5119.045469
-5826.444463
-6463.90874
-6998.904642
-7387.15249
-7625.832382
-7716.490809
-7640.022864
-7380.340982
-6951.374738
-6374.529038
-5667.796948
-4854.210673
-3962.597267
-3031.414311
-2095.599132
-1188.53865
-329.9772771
443.7827572
1113.18491
1663.476415
2091.639905
2385.801134
2534.040908
2538.827628
2405.088705
2149.644773
1794.587169
1365.135474
890.5772043
402.2079245
-69.33101898
-494.3449151
-852.7661772
-1119.383789
-1235.240454
-105651.349
-62730.4926
-94145.38597
118728.0969
100386.9137
7531.900734
-16194.52529
36524.00114
2379.06531
11431.75273
18816.19926
7404.794291
11263.87689
10903.42246
5653.45434
5511.097346
6368.11572
4520.771794
3519.092711
1736.112922
871.3660424
-433.9650727
-1670.891904
-2658.288278
-3737.123642
-4773.686488
-5659.160576
-6426.956578
-7060.179273
-7519.173262
-7795.690409
-7886.857846
-7777.981465
-7468.298642
-6978.43887
-6332.497512
-5553.344033
-4670.075517
-3718.098618
-2737.125877
-1766.523996
-837.0168267
23.7249486
784.6997843
1420.250497
1924.473786
2285.831317
2490.375771
2539.183751
2436.154635
2195.776233
1840.831461
1397.52926
896.8612472
373.5751349
-137.7884357
-603.7904234
-1001.596738
-1304.795148
-1445.372129
-42017.35246
18507.94395
-87522.78551
-57788.071
55827.44747
82756.28956
7537.577972
23622.40187
751.5466628
31923.21791
17343.03586
10846.16904
17513.43496
13649.03617
10151.07004
10378.28819
9569.248132
8061.34054
6234.163763
4916.979217
3759.63015
2667.886817
1014.77163
-522.2409132
-1893.095384
-3154.204834
-4297.743044
-5334.655795
-6228.357634
-6929.087164
-7427.99065
-7721.985146
-7799.153739
-7654.655435
-7298.835898
-6755.032286
-6049.44828
-5212.17264
-4278.469341
-3288.219934
-2285.594472
-1309.794683
-391.6435038
436.4812446
1140.443929
1706.175755
2123.991405
2378.227806
2466.376854
2391.75294
2167.469132
1815.337784
1363.562229
844.1433615
293.8379629
-249.2867215
-748.5278643
-1178.547315
-1511.526069
-1672.318345
-315834.9347
234642.2195
32183.15627
191709.6782
163678.0876
-8768.526039
-51873.95594
59016.9281
10839.39508
19802.76823
38238.36414
24949.8578
15913.91671
12920.36204
14860.23678
17287.73513
15481.96046
11871.35199
9452.50955
7969.898638
7192.321458
5551.374706
3868.966059
2104.532849
413.2823439
-1111.166364
-2529.383644
-3844.690904
-5003.4572
-5966.676015
-6712.170454
-7227.154859
-7506.950829
-7549.987602
-7359.803542
-6950.918469
-6349.741689
-5588.78773
-4704.545764
-3737.769375
-2733.780808
-1737.674367
-787.527135
83.1071726
837.9563731
1451.164581
1913.036532
2208.182748
2329.05018
2279.899868
2071.546385
1725.335688
1270.183829
739.0400314
170.2904488
-395.5905774
-919.3808721
-1373.571996
-1729.034521
-1904.892981
-41516.57583
-57270.90577
164384.7591
77960.457
130004.2049
13092.38189
-3947.992362
51019.5402
13502.83531
25356.62932
37051.81357
18330.67599
17132.70968
23208.52799
22631.86681
17849.6581
15690.93057
14956.55709
14340.84322
12758.81415
10778.88966
8694.581198
6825.322757
4940.205612
3009.565811
1122.677816
-631.4542172
-2200.507215
-3577.393788
-4773.625478
-5766.519509
-6515.367231
-7004.710321
-7240.029672
-7225.137803
-6966.42195
-6487.022374
-5821.220057
-5007.443036
-4087.243425
-3105.830301
-2111.92539
-1150.651808
-258.3717249
527.9497224
1174.844337
1668.862933
1994.383586
2141.9487
2114.301917
1921.050819
1583.019846
1129.182499
593.1732399
14.27820823
-565.470042
-1105.019672
-1575.103425
-1945.159677
-2130.831201
-644706.9411
363916.9005
-71273.78837
-224717.8347
135327.2765
20828.23191
48051.41755
26483.69197
32814.38983
26265.80101
35971.09659
27940.50091
24076.91731
24519.2447
24862.789
21920.00477
19481.65152
17950.05836
17557.60082
16345.37986
14056.40638
11692.01028
9556.132662
7501.370104
5421.624917
3344.733238
1348.342594
-492.7386837
-2136.220514
-3568.469461
-4774.720514
-5727.661477
-6411.525814
-6828.330754
-6979.239939
-6866.678309
-6510.261853
-5945.058051
-5210.070555
-4347.386381
-3403.674807
-2428.795032
-1472.203982
-574.4647098
226.5392335
893.886538
1408.228979
1754.68694
1922.03435
1911.5664
1732.039589
1403.585143
955.0403244
420.1138839
-161.4748367
-746.7616016
-1293.348031
-1770.682175
-2148.162617
-2338.284716
-117923.9995
203497.2543
65332.52739
52757.09972
50865.19548
54087.49983
61059.80564
26767.36057
49697.9974
22984.52399
29776.11944
32830.39175
33920.35046
30605.94451
26932.77364
25984.2572
22763.84957
21619.74713
20186.47277
18245.95491
16210.44245
14219.16727
12117.47672
9832.653523
7482.712123
5191.215111
3014.734669
980.657019
-872.0467373
-2501.046504
-3885.694926
-5011.345698
-5860.482364
-6427.560947
-6714.262402
-6724.541017
-6475.404333
-6000.115279
-5338.459919
-4533.196142
-3631.621981
-2684.56083
-1743.267226
-851.873758
-49.24789971
626.1156661
1150.230251
1508.454169
1688.261899
1690.037261
1521.858944
1203.318925
762.7318914
233.6404058
-344.1085001
-926.9076411
-1472.118366
-1950.093065
-2327.805659
-2516.980585
-377215.1742
588305.658
-60673.38798
-35215.86516
67666.68482
67997.92533
36372.45212
39897.17802
51169.73514
45846.11331
39060.76501
35492.0203
28252.89966
28751.64268
30074.74238
29806.41363
27922.0386
25452.14032
23021.78105
20782.71045
18567.24742
16236.50501
13785.48718
11305.04634
8873.289226
6506.96424
4210.042375
2020.126928
9.159395984
-1760.938894
-3268.300286
-4507.738698
-5466.770046
-6135.034275
-6513.061479
-6606.818091
-6432.656053
-6022.556525
-5416.625953
-4658.043485
-3794.090071
-2875.952149
-1955.249927
-1077.901158
-283.7005759
388.6978066
912.9922344
1273.688246
1458.287463
1466.624873
1306.467704
997.0632712
565.8818413
46.42873454
-521.5696115
-1095.356222
-1633.150356
-2104.049934
-2474.56646
-2658.328597
87254.67514
-625442.8444
-15957.28358
171166.6369
128745.9372
17022.79919
27452.28196
35863.58821
49834.32813
52166.65415
49057.25211
43267.35876
38250.89601
35103.39814
33011.5398
31193.08515
29236.73492
27132.1304
24823.89013
22340.14393
19744.00927
17132.99267
14568.94375
12049.29109
9554.467976
7085.158967
4681.261365
2413.955994
346.6729596
-1473.482429
-3030.382365
-4317.793746
-5318.84253
-6023.470987
-6433.97171
-6558.615048
-6415.539302
-6036.209594
-5459.820003
-4729.279216
-3891.798076
-2998.163996
-2099.269841
-1240.699557
-462.5644677
197.2838681
712.221167
1066.22268
1247.75723
1256.294045
1099.878459
797.5880311
376.2451744
-131.0549926
-685.2816303
-1244.727849
-1769.061788
-2226.282919
-2584.284114
-2758.990802
644550.8279
417336.7907
227886.283
124524.3478
69166.84285
48895.73781
47422.74677
49463.16801
49798.00457
47617.75703
44396.92542
41494.61599
39365.71315
37532.33239
35668.53284
33508.51283
30917.50196
28086.70056
25164.15037
22299.08342
19543.01262
16910.89705
14339.54163
11778.25967
9226.052712
6715.746883
4335.516946
2097.931614
70.56365088
-1714.247839
-3232.911493
-4482.688257
-5444.684882
-6110.479003
-6487.753438
-6586.600847
-6426.513022
-6039.121441
-5462.709918
-4739.264972
-3915.449719
-3040.789602
-2163.998392
-1328.870509
-574.7786265
62.64397037
558.0263667
895.3732925
1064.907374
1066.531279
908.9308871
611.179718
199.3280206
-293.7941963
-830.55751
-1370.517446
-1874.820423
-2313.60771
-2652.646977
-2815.63502
46425.42542
46433.34565
44792.9611
42925.62755
43050.0564
44232.70755
45100.31853
45551.73016
45166.31338
44309.36658
43012.16222
41399.16828
39432.98699
37164.32595
34539.15323
31698.9047
28714.19426
25852.4368
23132.69135
20523.66072
17981.57142
15457.80133
12920.30323
10394.17073
7916.615175
5481.566985
3192.506447
1093.134315
-799.3432715
-2449.009223
-3839.291876
-4960.702883
-5800.341169
-6358.569743
-6641.973602
-6661.917956
-6440.706069
-6010.233309
-5407.403898
-4673.260734
-3853.139899
-2993.962803
-2141.022234
-1335.018389
-613.5126674
-9.003942566
456.0688939
766.7108551
915.3126886
902.5593754
738.5470556
442.3352876
39.45848975
-438.096861
-954.3475343
-1470.975417
-1950.899495
-2366.065392
-2683.970398
-2830.973498
46880.16942
46091.25871
47993.30908
48685.95016
48478.87931
48232.3789
47536.67196
46512.90665
45278.87299
43600.81759
41395.8918
39056.59838
36351.81783
33697.57005
30842.2022
28098.60755
25450.44944
22846.95778
20344.82352
17883.10805
15419.35593
12935.18728
10430.07267
8036.007065
5682.736378
3463.275915
1399.856556
-465.0054529
-2118.292236
-3542.739715
-4718.200798
-5634.257551
-6288.85562
-6682.107315
-6820.063702
-6718.661146
-6402.964529
-5904.554476
-5258.699353
-4504.851811
-3685.695659
-2844.251493
-2021.374026
-1254.18966
-576.7172381
-17.21380166
405.5276759
678.1677908
796.1157518
761.4008773
585.5525742
287.5565998
-107.4407255
-568.3106325
-1061.48717
-1551.056637
-2002.509005
-2389.866053
-2682.019801
-2811.865573
44558.36376
43823.86046
42902.06309
43465.6963
42671.69087
41756.16763
40635.87197
39626.97047
38175.01881
36492.25318
34663.58776
32464.22262
30272.5208
28010.53448
25668.33781
23417.57607
21141.12571
18810.74932
16480.7794
14143.05772
11805.79043
9493.613887
7175.855558
5026.152177
2954.2355
1033.684005
-727.9312038
-2286.435186
-3641.391284
-4779.49197
-5680.205477
-6343.289822
-6767.07057
-6954.308521
-6915.920556
-6671.738591
-6247.722183
-5673.278301
-4982.239777
-4211.777447
-3400.665287
-2586.81859
-1806.036056
-1091.24041
-472.0763007
29.03408201
396.7225106
620.4685393
698.6064385
635.1036404
442.8808648
140.9588002
-246.2609443
-689.1611182
-1156.607322
-1615.526489
-2034.576234
-2390.500892
-2654.125797
-2765.251766
37357.02297
39224.63356
36642.91922
36450.12207
35852.13448
34651.88535
33207.42479
31819.29606
30376.8958
28859.44459
27311.19747
25588.93603
23789.58158
21835.6772
19846.05503
17814.12895
15696.42887
13610.95759
11552.81835
9465.884542
7433.808242
5455.457531
3520.533321