/*--------------------------------*- C++ -*----------------------------------*\
  =========                 |
  \\      /  F ield         | OpenFOAM: The Open Source CFD Toolbox
   \\    /   O peration     | Website:  https://openfoam.org
    \\  /    A nd           | Version:  10
     \\/     M anipulation  |
\*---------------------------------------------------------------------------*/
FoamFile
{
    format      ascii;
    class       volScalarField;
    location    "0.02498436188";
    object      ddt0(rho,C2H4);
}
// * * * * * * * * * * * * * * * * * * * * * * * * * * * * * * * * * * * * * //

dimensions      [1 -3 -1 0 0 0 0];

internalField   nonuniform List<scalar> 
5170
(
-6.71390492e-09
-6.754203515e-09
-6.731383518e-09
-6.45905153e-09
-1.646740184e-10
-8.768219325e-09
-8.763993421e-09
-8.768373324e-09
-8.6626438e-09
-6.759121608e-09
-8.994664802e-09
-8.999536128e-09
-9.030748193e-09
-9.105129994e-09
-8.721498121e-09
-8.568369152e-09
-8.584394704e-09
-8.628630225e-09
-8.748000179e-09
-8.931222968e-09
-8.038579924e-09
-8.062558007e-09
-8.118417833e-09
-8.222129035e-09
-8.479967385e-09
-7.572516097e-09
-7.581050117e-09
-7.617062905e-09
-7.756865148e-09
-7.947724656e-09
-7.271528336e-09
-7.272583921e-09
-7.285149066e-09
-7.391325346e-09
-7.525993047e-09
-7.130747766e-09
-7.152079866e-09
-7.169480321e-09
-7.167831529e-09
-7.272598688e-09
-7.151290453e-09
-7.14951534e-09
-7.149664085e-09
-7.137845815e-09
-7.211197138e-09
-7.287461617e-09
-7.268744363e-09
-7.174892398e-09
-7.251404854e-09
-7.319100709e-09
-7.4384125e-09
-7.441356204e-09
-7.383217859e-09
-7.400325078e-09
-7.482046096e-09
-7.583336245e-09
-7.598252044e-09
-7.66576472e-09
-7.564752241e-09
-7.642891273e-09
-7.756281459e-09
-7.759269212e-09
-7.829630385e-09
-7.754732518e-09
-7.809552409e-09
-7.914903821e-09
-7.895996614e-09
-7.903162191e-09
-7.912065228e-09
-7.939818687e-09
-8.010562298e-09
-7.992306264e-09
-7.952644572e-09
-8.005597252e-09
-8.006434482e-09
-8.038890503e-09
-8.043454641e-09
-7.99347973e-09
-8.021629024e-09
-8.024432177e-09
-8.023537742e-09
-8.034768881e-09
-8.022127129e-09
-7.983017263e-09
-7.993933188e-09
-7.968367777e-09
-7.975386449e-09
-8.009220885e-09
-7.936002709e-09
-7.917152108e-09
-7.909560289e-09
-7.915507589e-09
-7.906878068e-09
-7.971654569e-09
-7.745638025e-09
-7.921252536e-09
-7.759785277e-09
-6.161937681e-09
-4.309929396e-09
6.909535222e-08
-2.320366637e-19
2.508532828e-19
2.881455018e-19
2.952320869e-19
2.920912289e-19
-1.754109526e-19
1.853824956e-19
-8.662672183e-20
-1.755026838e-19
-2.637841352e-20
-1.385080285e-19
-2.405204939e-20
-7.860304945e-21
-1.048053296e-20
1.40674835e-20
2.734895909e-19
-2.967135194e-20
-2.113205123e-20
-1.013918596e-19
3.068565886e-18
-8.316344399e-16
-7.491333947e-18
2.647215535e-18
-1.170387852e-17
1.307831535e-15
5.915247294e-13
1.285850921e-14
-1.486144587e-15
3.053918136e-14
-2.175512335e-12
2.196212605e-12
-7.213163559e-13
4.324899015e-13
-7.690062749e-13
-1.811563546e-11
-2.060408899e-11
-2.748467934e-13
-1.278818067e-12
-2.687951571e-11
-4.862470003e-13
3.920502673e-12
-3.384821626e-11
-3.02264624e-11
-5.69358753e-12
-2.64137745e-11
-1.302854262e-11
-6.463344368e-12
2.941215901e-11
-3.017487744e-12
-3.077273687e-11
-1.524460819e-11
5.125472998e-12
-3.674302657e-11
-1.171009508e-10
-1.673441052e-10
8.595526375e-13
2.283387181e-11
-5.545382732e-11
3.486405556e-11
3.074813896e-11
-1.376232462e-09
-2.074645614e-10
-1.378714283e-10
1.47343542e-11
-1.764192986e-10
-1.775937474e-10
4.596173938e-11
2.138459388e-10
7.438449948e-10
-2.879880744e-10
-1.735526136e-10
-3.906301108e-09
1.469358802e-10
2.540798797e-09
-4.258362974e-10
-5.398722901e-10
1.175649737e-09
3.778538793e-09
7.946566354e-09
-8.539024569e-10
-1.296010506e-09
-7.145126793e-09
-2.873496102e-09
2.431728756e-11
-5.846091889e-10
1.028557648e-09
5.423976298e-10
-5.430450274e-09
6.998134437e-09
-7.839006566e-10
7.200168432e-08
-8.576133656e-08
2.884182589e-08
3.153850404e-09
-6.469252808e-10
1.865019565e-06
-7.061498404e-08
-3.813777263e-07
-1.540538668e-08
3.275604489e-09
-1.512533103e-08
-1.455845439e-08
-1.838747054e-08
3.794364366e-06
0.0002112846623
-1.078100146e-07
-8.383225549e-07
-7.007676763e-07
1.493070416e-05
-0.0002257875252
1.555916129e-07
-4.905806601e-07
3.153038956e-07
5.082574644e-05
-0.000267167271
2.338752588e-06
2.675649458e-05
0.0002007412
0.0007077379507
0.0002136328924
-1.746592446e-07
2.307014594e-05
0.000183216446
0.0006264103314
0.0009500844987
-1.466728562e-05
-8.948341531e-05
-0.0003037378203
-6.789956738e-05
0.0002017702283
-7.653055155e-06
-9.337461181e-05
-0.0002505768818
-0.0007271749355
-0.0003421704046
4.080628071e-05
0.0001022934256
-3.305094346e-06
-0.0004246833187
-0.0007821509757
9.290524095e-05
0.0002030746793
0.0001647467263
8.690489081e-05
-0.000363951631
-5.391860749e-05
-2.228589303e-05
-5.048215004e-05
-0.0003752982542
-0.0001965528282
-0.0002865153942
-0.000699628767
-0.0009032315132
-0.0006498849218
-3.201037608e-05
-0.002253547779
-0.001946521049
-0.001656195911
-0.001398540656
-0.0006762881923
-0.001162610005
-0.0009408384543
-0.0007985578922
-0.0007580618906
-0.0008585755468
0.0002428829968
0.000241175851
0.0006418406181
0.0006675547062
0.0001601688482
0.001600390092
0.001344685531
0.001519709513
0.0009931701118
0.0002126957477
0.001911308548
0.001575800953
0.001615813209
0.001557795078
0.001400271233
-0.0004873610325
-0.0005224684903
-0.0003925941736
1.877889428e-05
0.0002454993894
-0.0003094881376
-0.0003718151871
-0.0006107324032
-0.0009842736003
-0.001523128992
-0.0002905853489
-0.0002846613791
-0.0005532248887
-0.0006973389254
-0.001213393223
-0.000596003725
0.0005077428292
0.002224792517
0.005663346923
0.01090084216
0.002499501876
0.004521752392
0.009153503875
0.01612296915
0.02448290506
0.01418429761
0.01617302562
0.02058791368
0.02600079303
0.03219694398
0.02626501485
0.02754121759
0.02957417456
0.03231868777
0.0354992877
0.03368977346
0.03424843463
0.03511135583
0.03629811423
0.03725016134
0.03652477569
0.0367639381
0.03690540503
0.03703209727
0.03751484172
0.03515892936
0.03514140589
0.0351443407
0.03497670569
0.03489008434
0.03181788136
0.03183439725
0.03168962783
0.03143592825
0.03129667165
0.02793348479
0.02773236352
0.02765811554
0.02739946075
0.02703277502
0.02393227177
0.0237959543
0.02369855607
0.02344665351
0.02308648875
0.02023984693
0.02021275146
0.02006587708
0.01983636534
0.01957269435
0.01696134979
0.01687911389
0.01677278445
0.01656396355
0.01633739709
0.0138900722
0.01384884708
0.01373697387
0.01358530099
0.01333493043
0.01111876379
0.01106333221
0.01098090404
0.0108609877
0.01066961236
0.008603741725
0.008572631608
0.008515374244
0.0084154461
0.008273118239
0.006417920337
0.00639731829
0.006351654172
0.006280805478
0.006189291468
0.004580821143
0.004565428038
0.004533630336
0.004488736573
0.004420552239
0.003111205903
0.003103524928
0.003083038519
0.003052317988
0.003010879671
0.002006643444
0.002002299409
0.001989781905
0.001971525283
0.001945358518
0.001226880704
0.001223089786
0.001216549532
0.00120624581
0.001192248018
0.0007081959861
0.0007071295893
0.0007036903008
0.0006977341786
0.0006905645716
0.0003866535479
0.0003860923287
0.0003843746959
0.0003815649737
0.0003778681324
0.0001993123583
0.000199030075
0.0001982715752
0.0001970315149
0.0001952717876
9.695316603e-05
9.689570099e-05
9.658823512e-05
9.606051778e-05
9.531925861e-05
4.459769892e-05
4.457508644e-05
4.446822013e-05
4.427118212e-05
4.398464745e-05
1.94240516e-05
1.94243589e-05
1.939191742e-05
1.932463575e-05
1.923131998e-05
8.050513501e-06
8.05188175e-06
8.045045795e-06
8.026409307e-06
8.000981946e-06
3.20140945e-06
3.203866116e-06
3.203507442e-06
3.19952921e-06
3.193625432e-06
1.246680153e-06
1.24813567e-06
1.249119041e-06
1.248714943e-06
1.247551895e-06
4.932608288e-07
4.940460868e-07
4.944983453e-07
4.947546801e-07
4.943551642e-07
2.110524894e-07
2.113663522e-07
2.116440575e-07
2.116633182e-07
2.118107972e-07
1.018846038e-07
1.019184215e-07
1.016377797e-07
1.016637631e-07
1.01843752e-07
6.249858565e-08
6.246064846e-08
6.16680778e-08
6.173322131e-08
6.204931101e-08
4.202226986e-08
4.230434527e-08
4.233826152e-08
4.210460461e-08
4.237530602e-08
3.106651573e-08
3.097747975e-08
3.098286448e-08
3.098436563e-08
3.070060886e-08
2.302341229e-08
2.32928295e-08
2.31206772e-08
2.319168289e-08
2.311295962e-08
1.683491303e-08
1.700667137e-08
1.696546906e-08
1.69342766e-08
1.690403888e-08
1.157783393e-08
1.150413524e-08
1.153447424e-08
1.149620862e-08
1.185079621e-08
6.789675541e-09
6.753364318e-09
6.789361923e-09
6.796978184e-09
7.133867373e-09
2.859843666e-09
2.854422276e-09
2.890060505e-09
2.948579026e-09
3.266130241e-09
2.132629248e-10
2.543825889e-10
2.993029293e-10
3.311619463e-10
6.146502282e-10
-4.161950344e-10
-3.849613843e-10
-3.282095903e-10
-2.689725457e-10
-2.781336789e-11
3.253207389e-10
3.233937135e-10
3.435032129e-10
4.089497258e-10
6.484089704e-10
2.581668495e-09
2.588329057e-09
2.607676471e-09
2.709248193e-09
3.036301443e-09
5.080921401e-09
5.115223338e-09
5.131853043e-09
5.113796468e-09
5.347049428e-09
7.209241695e-09
7.169369094e-09
7.211259972e-09
7.190610701e-09
7.248499285e-09
8.193314247e-09
8.222873459e-09
8.215858238e-09
8.20979437e-09
8.241398388e-09
8.014876178e-09
8.005649509e-09
7.985484177e-09
7.985761459e-09
7.993805264e-09
7.430433622e-09
7.456154985e-09
7.460655227e-09
7.483237558e-09
7.460359602e-09
6.026757164e-09
6.033861524e-09
6.032427603e-09
6.05460795e-09
6.064227924e-09
5.166765578e-09
5.180741829e-09
5.189356359e-09
5.203057718e-09
5.215367445e-09
-0.0006024745723
0.003421008878
0.001866490573
0.003926026024
0.0002583771411
0.0009738357864
-0.0003916523482
-0.0007191024389
-0.0005187512126
-2.534055807e-05
0.0002012960975
-0.0004153102552
0.0009874832637
0.0003043180488
0.0007127921694
-0.002207385577
0.001940677817
-0.001822690564
-0.00190932921
0.01442333855
0.03113626582
0.03648937786
0.03712736628
0.03867521418
0.03634203408
0.03453911237
0.03056852414
0.02692158186
0.02300386513
0.01926526377
0.01605478228
0.01331265655
0.01061327206
0.008242167677
0.006124241609
0.004389026368
0.00298714408
0.001934794628
0.001181905428
0.000685950445
0.0003761457132
0.0001947774019
9.523424568e-05
4.40061135e-05
1.924779581e-05
8.010138978e-06
3.203605608e-06
1.254547684e-06
4.990845446e-07
2.132962795e-07
1.025222661e-07
6.048667054e-08
4.153034513e-08
3.17456885e-08
2.311114272e-08
1.70182387e-08
1.060352002e-08
6.05904965e-09
2.359363168e-09
-1.561665224e-11
-5.471137218e-10
2.325977019e-10
2.24725447e-09
4.693067988e-09
7.159146794e-09
8.177042662e-09
7.891060764e-09
7.557372728e-09
6.116679281e-09
5.288909615e-09
0.0009444138316
-7.839318751e-05
1.048726678e-06
-1.153238124e-07
1.187048743e-08
-0.000225937879
-0.009941383615
2.096233184e-05
-2.19398047e-05
-5.830492173e-07
-0.001193261775
-0.006337100834
0.01156699673
9.693535292e-05
4.785285885e-06
0.000218003338
-0.02153055903
-0.0008511671842
5.804270834e-06
6.492910917e-06
-0.0003137754896
0.01435033847
-0.037881394
-0.001697695668
8.287301171e-06
0.0009874025005
-0.009312968289
0.01475805005
0.0007221432975
6.053453963e-05
-0.0003030755658
0.003994694341
0.04099309102
0.002723363441
0.0003070295421
0.0002138909838
-0.0008580736121
0.03178909494
7.299683725e-05
2.769955092e-05
-0.0004411097425
-0.002179215246
-0.001700522395
0.1897280238
0.003865104147
0.0005575410902
0.0009072415834
-0.009966895761
-0.002125752806
-0.00154244428
0.0005393701043
0.0005293130585
0.02564683658
-0.1246356284
-0.0003325141979
0.0001160303776
-0.0003817549267
-0.001827271558
0.112476315
0.000895123865
-3.276106503e-05
-0.004277416062
-0.003514440085
-0.002323700961
0.001330986531
-0.0004031711327
0.001154428622
-0.0006996661441
-0.004315266979
-0.003318251367
-1.668270557e-05
0.001902507826
-3.139466894e-05
-0.003193741901
-0.07836496193
-0.0005989427045
-9.818628404e-05
-0.003126036056
0.003014632386
-0.009997933432
0.000994401656
0.002253474917
0.005639644248
0.0008688264361
0.06586537876
-0.0008115672284
0.001306662601
0.007207613735
0.03112819703
0.1023211937
-0.005990662203
-0.01801036041
-0.02621167604
0.05285980248
0.2567581333
0.01840158705
0.02343927678
0.01086323403
-0.2035361308
-1.931774844
0.03820710782
0.0494472191
0.05338240831
0.01507093017
-0.1839165041
0.0421856954
0.04934648792
0.0517782686
0.04285881365
0.01129657552
0.0403576681
0.04333116639
0.04339437729
0.03942206251
0.03104365332
0.03887079234
0.0392676772
0.03828345009
0.03572371542
0.031848918
0.03735362776
0.03675509589
0.0354713456
0.03340120841
0.0307036346
0.03446826206
0.03365465395
0.03232791811
0.03048540864
0.02821656864
0.03070627988
0.02984554376
0.02861265039
0.02696106374
0.02500049863
0.02654360003
0.02579116507
0.02466085347
0.0232363008
0.02156074898
0.02262381207
0.0219331471
0.02094679286
0.01971618275
0.01831159466
0.01909631919
0.01846729868
0.01760931076
0.01656754184
0.0153911952
0.01591408272
0.01536869167
0.01464288149
0.01377514418
0.01280406832
0.01301876689
0.01258330311
0.01199086065
0.01128442059
0.01050132752
0.01041964277
0.01007493598
0.009608824235
0.009051189202
0.008434161919
0.008090089683
0.007835791245
0.007479277146
0.00705564116
0.00658025396
0.0060576643
0.005873221181
0.005615576495
0.005301773226
0.004950144048
0.004339483594
0.004217574107
0.004037864086
0.003817182196
0.003566614089
0.002963032177
0.002886102645
0.002768540282
0.002619791799
0.002450426605
0.001921106034
0.001876613261
0.001803377692
0.001709053711
0.001599830907
0.001180858269
0.001156637978
0.001113726265
0.001057121008
0.0009905357207
0.0006865477623
0.0006746370798
0.0006511165456
0.000618961735
0.0005807219246
0.000377271962
0.0003719960282
0.0003599213099
0.0003427306397
0.0003219945275
0.0001958271997
0.0001938058248
0.0001879972544
0.0001793727546
0.0001687737929
9.602639629e-05
9.539625309e-05
9.279071015e-05
8.87288567e-05
8.36278707e-05
4.451692601e-05
4.43991659e-05
4.33142515e-05
4.151446601e-05
3.920735143e-05
1.955241413e-05
1.957752371e-05
1.91579489e-05
1.840914295e-05
1.742543958e-05
8.166174788e-06
8.211911404e-06
8.061887858e-06
7.769274331e-06
7.373158384e-06
3.276758863e-06
3.308728763e-06
3.256588346e-06
3.14717141e-06
2.996012808e-06
1.283373902e-06
1.299056816e-06
1.283461556e-06
1.245157919e-06
1.190074851e-06
5.090239669e-07
5.161381173e-07
5.116499813e-07
4.984700514e-07
4.769784246e-07
2.174197613e-07
2.17742381e-07
2.165357337e-07
2.137546736e-07
2.065740838e-07
1.057587021e-07
1.065306009e-07
1.060811743e-07
1.034993735e-07
1.008478372e-07
6.241252805e-08
6.250177836e-08
6.208711514e-08
6.120866562e-08
5.992685315e-08
4.239580769e-08
4.234487405e-08
4.204219831e-08
4.155304267e-08
4.082255532e-08
3.09266917e-08
3.096235624e-08
3.075765626e-08
3.039608539e-08
2.997025263e-08
2.316291017e-08
2.315674545e-08
2.300827013e-08
2.279212337e-08
2.243608369e-08
1.696694097e-08
1.697381478e-08
1.690302319e-08
1.678511263e-08
1.660299919e-08
1.175425964e-08
1.173870325e-08
1.177349127e-08
1.175310472e-08
1.170690009e-08
7.131098856e-09
7.210148659e-09
7.342362956e-09
7.439011076e-09
7.523107926e-09
3.344283374e-09
3.50426595e-09
3.716572498e-09
3.902040994e-09
4.065840599e-09
7.023009438e-10
9.456579154e-10
1.621191766e-09
1.858275912e-09
2.23289824e-09
2.094793511e-10
4.658822888e-10
4.822781051e-10
8.521853524e-10
1.24604289e-09
7.846855302e-10
9.983351816e-10
1.300504087e-09
1.610710184e-09
1.942457907e-09
3.034822326e-09
3.017874232e-09
3.124298024e-09
3.376800754e-09
3.634217086e-09
5.281211201e-09
5.305892823e-09
5.421924749e-09
5.56391199e-09
5.73052795e-09
7.227965433e-09
7.246050188e-09
7.293889412e-09
7.356311516e-09
7.42568198e-09
8.205422623e-09
8.18740158e-09
8.18124481e-09
8.156879084e-09
8.097158534e-09
7.901883321e-09
7.909941705e-09
8.522918026e-09
8.448895567e-09
8.45653788e-09
7.594302804e-09
7.656346688e-09
7.283332639e-09
7.335108277e-09
7.357758831e-09
6.112934287e-09
6.174932823e-09
6.247322677e-09
6.307498457e-09
6.355515846e-09
5.325209876e-09
5.367027335e-09
5.169273846e-09
5.413143791e-09
5.433256847e-09
-2.331551677e-08
-1.169578087e-09
-1.687923988e-10
-7.322403347e-11
-4.338523389e-11
-2.856583096e-11
-2.33615185e-11
-2.613054127e-11
-3.079814271e-11
-3.51995442e-11
-3.787074936e-11
-3.932223399e-11
-3.99978706e-11
-4.013421549e-11
-4.000525892e-11
-3.920184015e-11
-3.92298791e-11
-4.007914924e-11
-4.029394747e-11
-4.036519038e-11
-4.039519302e-11
-4.042039962e-11
-4.045227392e-11
-4.048916982e-11
-4.053268052e-11
-4.057766181e-11
-4.0623881e-11
-4.067110472e-11
-4.071869823e-11
-4.076617128e-11
-4.081301745e-11
-4.086018548e-11
-4.091061197e-11
-4.096386849e-11
-4.101768485e-11
-4.107006198e-11
-4.112313381e-11
-4.11775619e-11
-4.123273185e-11
-4.128867844e-11
-4.134610096e-11
-4.1403171e-11
-4.146181372e-11
-4.151947614e-11
-4.157510018e-11
-4.162878268e-11
-4.168148898e-11
-4.173171614e-11
-4.177797804e-11
-4.182201476e-11
-4.186244369e-11
-4.189873116e-11
-4.193116974e-11
-4.196072857e-11
-4.199905878e-11
-4.212974664e-11
-4.278957917e-11
-4.552930227e-11
-5.433237229e-11
-6.616551519e-11
-4.973087858e-07
-2.336993761e-07
-4.178749803e-08
-4.510156504e-09
-5.87049698e-10
8.493835755e-11
2.264660552e-10
2.40957625e-10
2.078953109e-10
1.711668372e-10
1.449803533e-10
1.303119458e-10
1.233663707e-10
1.205014111e-10
1.196680455e-10
1.206377878e-10
1.20510496e-10
1.188301517e-10
1.182574041e-10
1.180738435e-10
1.180023027e-10
1.179380075e-10
1.178834883e-10
1.178320583e-10
1.177657233e-10
1.176967639e-10
1.176248446e-10
1.17539223e-10
1.174588548e-10
1.173663188e-10
1.172747568e-10
1.171747593e-10
1.170560509e-10
1.169293208e-10
1.168191513e-10
1.167266272e-10
1.166020972e-10
1.164637392e-10
1.163443791e-10
1.1622901e-10
1.1609038e-10
1.159768253e-10
1.158473692e-10
1.157335636e-10
1.155929487e-10
1.154656288e-10
1.15354617e-10
1.152470173e-10
1.151717526e-10
1.15081052e-10
1.15003391e-10
1.149386877e-10
1.148798473e-10
1.148247236e-10
1.147575371e-10
1.145504112e-10
1.13817029e-10
1.112816463e-10
1.059305578e-10
1.02052896e-10
-2.148314892e-06
-4.507025677e-06
-4.281021132e-07
-3.546400257e-08
-4.653894894e-09
-7.639909207e-11
9.826276987e-10
1.136592292e-09
9.65352013e-10
7.378523631e-10
5.618482607e-10
4.566168838e-10
4.040744062e-10
3.818247291e-10
3.738229318e-10
3.724841875e-10
3.716000226e-10
3.693851476e-10
3.686050484e-10
3.683183391e-10
3.681585886e-10
3.680073971e-10
3.678334368e-10
3.676457409e-10
3.674475346e-10
3.672494439e-10
3.670575063e-10
3.668650239e-10
3.666830495e-10
3.665066071e-10
3.66330079e-10
3.661553404e-10
3.65983537e-10
3.658205985e-10
3.656622261e-10
3.654998809e-10
3.653386831e-10
3.651803954e-10
3.650249719e-10
3.648651908e-10
3.647097487e-10
3.645616714e-10
3.644091145e-10
3.642710318e-10
3.641250673e-10
3.639896005e-10
3.638598319e-10
3.637450376e-10
3.636513009e-10
3.635541739e-10
3.634662742e-10
3.633994487e-10
3.633353163e-10
3.632876354e-10
3.632384936e-10
3.631720255e-10
3.631112039e-10
3.635047856e-10
3.670185541e-10
3.728124501e-10
-4.990833803e-06
-2.333130094e-05
-6.342008585e-06
-4.033911224e-07
-4.499128007e-08
-6.800957772e-09
2.166512266e-09
4.05822369e-09
3.637161321e-09
2.594254391e-09
1.679284773e-09
1.089897032e-09
7.791356504e-10
6.407960609e-10
5.881731631e-10
5.719298414e-10
5.666221242e-10
5.634547675e-10
5.625584973e-10
5.622918507e-10
5.621371988e-10
5.619414133e-10
5.617001672e-10
5.614476234e-10
5.612037587e-10
5.609765045e-10
5.607655201e-10
5.605694666e-10
5.603873449e-10
5.602186525e-10
5.600616669e-10
5.599146468e-10
5.597775735e-10
5.596506845e-10
5.59531743e-10
5.594171686e-10
5.593074755e-10
5.591995001e-10
5.590929423e-10
5.589836633e-10
5.588770908e-10
5.58776202e-10
5.586741041e-10
5.58577462e-10
5.584798539e-10
5.583890075e-10
5.583002957e-10
5.582216522e-10
5.581481767e-10
5.580831252e-10
5.580242645e-10
5.579809436e-10
5.579414116e-10
5.579220935e-10
5.579143741e-10
5.580070547e-10
5.584612473e-10
5.604378171e-10
5.665800792e-10
5.735867461e-10
-5.217146684e-06
-4.079665414e-05
-5.101898141e-05
-5.67828469e-06
-4.004003575e-07
-4.270475059e-08
8.838068882e-09
1.691128523e-08
1.431390719e-08
9.581885941e-09
5.599142983e-09
3.036303548e-09
1.66467165e-09
1.033353855e-09
7.842239889e-10
7.008028714e-10
6.758482151e-10
6.681908123e-10
6.666333406e-10
6.664563012e-10
6.664724732e-10
6.664206824e-10
6.663020968e-10
6.661567006e-10
6.660169631e-10
6.658919901e-10
6.657832759e-10
6.656881953e-10
6.656065243e-10
6.655391344e-10
6.654812843e-10
6.654344024e-10
6.653975555e-10
6.653690335e-10
6.653463834e-10
6.653290704e-10
6.653143105e-10
6.652987694e-10
6.652815512e-10
6.652604282e-10
6.652377082e-10
6.652125725e-10
6.651830261e-10
6.651518904e-10
6.651165301e-10
6.650807157e-10
6.65040765e-10
6.650014803e-10
6.64960762e-10
6.649254428e-10
6.648907374e-10
6.648656313e-10
6.648439016e-10
6.648373661e-10
6.648542116e-10
6.64990175e-10
6.655006387e-10
6.672646449e-10
6.716487948e-10
6.760686358e-10
-6.877139884e-06
-4.318254498e-05
-0.0001082496665
-4.526887635e-05
-2.574125744e-06
-1.871727898e-08
8.162198993e-08
6.983544655e-08
4.924083174e-08
3.016356062e-08
1.638275082e-08
8.070656801e-09
3.763521197e-09
1.825453795e-09
1.066344346e-09
8.111149007e-10
7.353749016e-10
7.15045854e-10
7.108080035e-10
7.102967893e-10
7.104097899e-10
7.105017382e-10
7.105153658e-10
7.104926222e-10
7.104616638e-10
7.104357342e-10
7.104239318e-10
7.104249973e-10
7.104352782e-10
7.104585933e-10
7.104907439e-10
7.105320399e-10
7.105803435e-10
7.106355253e-10
7.106955525e-10
7.107567229e-10
7.108191936e-10
7.108785072e-10
7.10935926e-10
7.10987488e-10
7.110324907e-10
7.110711464e-10
7.111016984e-10
7.111231902e-10
7.111363561e-10
7.111412086e-10
7.111375605e-10
7.111275275e-10
7.11111303e-10
7.110903566e-10
7.110664054e-10
7.11048401e-10
7.110273486e-10
7.110188613e-10
7.110343237e-10
7.11131428e-10
7.114763077e-10
7.125114335e-10
7.147316122e-10
7.168143704e-10
-6.34446207e-06
-2.923407364e-05
-0.0001164581089
-0.0001532178464
-2.658779606e-05
-2.192934761e-07
2.638579925e-07
1.864519393e-07
1.224479486e-07
7.279295156e-08
3.872375309e-08
1.852884963e-08
8.118060463e-09
3.440082658e-09
1.604980292e-09
9.767966623e-10
7.880286102e-10
7.384585662e-10
7.275908467e-10
7.258093909e-10
7.258272603e-10
7.259843306e-10
7.260709238e-10
7.261197174e-10
7.261586891e-10
7.261914232e-10
7.262241573e-10
7.26269308e-10
7.263313135e-10
7.263975903e-10
7.264780724e-10
7.265671752e-10
7.266629937e-10
7.267649875e-10
7.268752353e-10
7.269813371e-10
7.270947228e-10
7.272020414e-10
7.273061712e-10
7.274052507e-10
7.274947827e-10
7.275768055e-10
7.276473695e-10
7.27704625e-10
7.277489914e-10
7.27783335e-10
7.278021024e-10
7.278105317e-10
7.278082072e-10
7.277948691e-10
7.277770856e-10
7.277534697e-10
7.277285536e-10
7.277091834e-10
7.277089262e-10
7.277493287e-10
7.279381399e-10
7.284418457e-10
7.294052434e-10
7.302845179e-10
1.19253418e-06
-1.239463048e-05
-9.979574627e-05
-0.0002051241846
-0.0001386957312
-3.017899228e-06
1.359275844e-06
5.471345807e-07
2.94870128e-07
1.660437557e-07
8.637705686e-08
4.042586183e-08
1.706318265e-08
6.680309545e-09
2.649147776e-09
1.278452654e-09
8.673115342e-10
7.598654711e-10
7.354745133e-10
7.309673971e-10
7.30448035e-10
7.306903452e-10
7.307790317e-10
7.308208093e-10
7.309052694e-10
7.309563531e-10
7.310120851e-10
7.310635946e-10
7.311364456e-10
7.312170639e-10
7.31310182e-10
7.314162876e-10
7.315304861e-10
7.316506299e-10
7.317770075e-10
7.319258417e-10
7.320524421e-10
7.322024005e-10
7.32329083e-10
7.324642687e-10
7.325830494e-10
7.32703917e-10
7.327992922e-10
7.328843821e-10
7.329597159e-10
7.330083552e-10
7.330434724e-10
7.330691022e-10
7.330859711e-10
7.33069469e-10
7.330350806e-10
7.330154572e-10
7.329813477e-10
7.329505227e-10
7.329325816e-10
7.329518507e-10
7.330508708e-10
7.3329665e-10
7.337327956e-10
7.341202512e-10
-0.0002196177876
-3.085142963e-05
-9.34881549e-05
-0.000227481935
-0.0003121447879
-4.881988627e-05
8.042391085e-06
1.959762924e-06
7.594500322e-07
3.80462968e-07
1.888401665e-07
8.527829085e-08
3.463144678e-08
1.281596839e-08
4.560680401e-09
1.812039207e-09
1.000825233e-09
7.914652309e-10
7.427879694e-10
7.33091771e-10
7.317689857e-10
7.318459508e-10
7.319988434e-10
7.321719722e-10
7.321486761e-10
7.322159245e-10
7.32255122e-10
7.323022203e-10
7.32368051e-10
7.324369851e-10
7.325040028e-10
7.326281444e-10
7.327481292e-10
7.328583343e-10
7.329958025e-10
7.331695366e-10
7.333199505e-10
7.33455118e-10
7.336507149e-10
7.33771838e-10
7.339476632e-10
7.340503902e-10
7.342372985e-10
7.34308844e-10
7.343992731e-10
7.344720498e-10
7.34519236e-10
7.345476904e-10
7.345619088e-10
7.345557828e-10
7.345354121e-10
7.345039897e-10
7.344653201e-10
7.344291372e-10
7.344052848e-10
7.344102211e-10
7.344696311e-10
7.346193395e-10
7.348670973e-10
7.350732101e-10
-3.4835523e-05
-7.182267525e-06
-5.827562126e-05
-0.0002456542435
-0.0004415754841
-0.0002404752569
4.140276317e-05
7.749236875e-06
1.95990871e-06
8.346162982e-07
3.875881418e-07
1.679508007e-07
6.562058625e-08
2.320779993e-08
7.695146519e-09
2.668825125e-09
1.212254874e-09
8.40814506e-10
7.537167782e-10
7.353916016e-10
7.323016923e-10
7.321062078e-10
7.32247913e-10
7.323656378e-10
7.324439243e-10
7.324922272e-10
7.325201105e-10
7.325501751e-10
7.325937275e-10
7.326497943e-10
7.327169165e-10
7.328028922e-10
7.329072704e-10
7.330283206e-10
7.33168392e-10
7.333272131e-10
7.334958134e-10
7.336721925e-10
7.338526644e-10
7.34029353e-10
7.341905568e-10
7.343616159e-10
7.345028998e-10
7.346256964e-10
7.347320674e-10
7.348183487e-10
7.348833381e-10
7.34926734e-10
7.34948619e-10
7.349490258e-10
7.349314056e-10
7.348996372e-10
7.348602318e-10
7.348207422e-10
7.347927848e-10
7.347922379e-10
7.348393296e-10
7.349566514e-10
7.351370521e-10
7.352688293e-10
-0.0001508188548
0.003058662612
-7.138581452e-05
-0.0002600660791
-0.000546078066
-0.0006204153172
9.263664064e-05
2.881969976e-05
5.011760194e-06
1.816349385e-06
7.678582962e-07
3.114276484e-07
1.151816776e-07
3.871151777e-08
1.215935364e-08
3.864795368e-09
1.510455033e-09
9.130570592e-10
7.703199322e-10
7.389945468e-10
7.329789681e-10
7.322379029e-10
7.323322245e-10
7.324476741e-10
7.325181818e-10
7.325565088e-10
7.32573354e-10
7.32583298e-10
7.326018018e-10
7.326333447e-10
7.326794437e-10
7.327457952e-10
7.328376635e-10
7.329538893e-10
7.330914445e-10
7.332479647e-10
7.33420432e-10
7.336050008e-10
7.337954062e-10
7.339856203e-10
7.341701261e-10
7.343468846e-10
7.345087636e-10
7.346525479e-10
7.347757328e-10
7.348783795e-10
7.349584706e-10
7.350137176e-10
7.3504452e-10
7.350515143e-10
7.350377753e-10
7.35007725e-10
7.349675871e-10
7.349263699e-10
7.348965004e-10
7.348941654e-10
7.349374817e-10
7.350428992e-10
7.351928378e-10
7.352832272e-10
0.01447296257
0.0005735548928
-1.722270263e-05
-0.0003045928646
-0.000737722472
-0.001092607546
-5.147071069e-05
0.0001302726171
2.002703449e-05
4.906726254e-06
1.649547148e-06
5.833011969e-07
1.959037507e-07
6.128109343e-08
1.813646953e-08
5.400371279e-09
1.894071022e-09
1.010092458e-09
7.941055901e-10
7.445231008e-10
7.343277389e-10
7.325883391e-10
7.324508544e-10
7.325669207e-10
7.32623957e-10
7.32634672e-10
7.326361607e-10
7.326286952e-10
7.326209261e-10
7.326263719e-10
7.326502197e-10
7.32695243e-10
7.327667521e-10
7.328668898e-10
7.329931262e-10
7.331420323e-10
7.33310638e-10
7.334949733e-10
7.336898324e-10
7.338887121e-10
7.340848417e-10
7.342736428e-10
7.344509678e-10
7.346112391e-10
7.347496997e-10
7.348660073e-10
7.349582775e-10
7.350238844e-10
7.350631571e-10
7.350766686e-10
7.350670818e-10
7.35039231e-10
7.349996814e-10
7.349581591e-10
7.349281038e-10
7.349256382e-10
7.349675453e-10
7.350663225e-10
7.351961524e-10
7.35256394e-10
-0.0008328898028
-7.335948427e-05
-2.110836149e-05
-0.0002632485131
-0.0009842267628
-0.001697905163
-0.0005977969437
0.0004270317355
5.588848524e-05
1.278967037e-05
3.467337299e-06
1.025881543e-06
3.034205103e-07
8.699983433e-08
2.436573212e-08
6.98796077e-09
2.314483619e-09
1.127068615e-09
8.253426134e-10
7.523271287e-10
7.361856008e-10
7.331688264e-10
7.327207631e-10
7.327187353e-10
7.32756939e-10
7.327685833e-10
7.327583274e-10
7.327292393e-10
7.326959565e-10
7.326752837e-10
7.326730561e-10
7.326928439e-10
7.327397911e-10
7.328171689e-10
7.329248375e-10
7.330599324e-10
7.332188864e-10
7.333974673e-10
7.335906511e-10
7.337924235e-10
7.339952833e-10
7.341927656e-10
7.343804766e-10
7.345530169e-10
7.3470406e-10
7.348315466e-10
7.34934217e-10
7.350092392e-10
7.350562452e-10
7.350758518e-10
7.350705858e-10
7.350453988e-10
7.350075694e-10
7.349672627e-10
7.349383664e-10
7.349368359e-10
7.349782838e-10
7.350716316e-10
7.351846716e-10
7.352212009e-10
-0.0005905073572
-5.38543216e-05
-0.003107195556
-0.0001127395262
-0.001271919444
-0.002545590353
-0.001619108779
0.0007766551533
0.0002159809256
3.521857176e-05
7.211346435e-06
1.750937158e-06
4.477437448e-07
1.156482275e-07
3.047000209e-08
8.515775711e-09
2.74693041e-09
1.257429564e-09
8.626850451e-10
7.620864222e-10
7.386895171e-10
7.337894868e-10
7.330001583e-10
7.32932778e-10
7.329422088e-10
7.329465092e-10
7.329235957e-10
7.328749465e-10
7.328187691e-10
7.327704115e-10
7.327397011e-10
7.327331717e-10
7.327548817e-10
7.328075416e-10
7.328925157e-10
7.330090857e-10
7.33154042e-10
7.333227386e-10
7.335098214e-10
7.337093502e-10
7.33914091e-10
7.341164464e-10
7.343105255e-10
7.344912017e-10
7.346520291e-10
7.347885236e-10
7.348995858e-10
7.34982589e-10
7.350361879e-10
7.350613751e-10
7.350604166e-10
7.35038488e-10
7.35003348e-10
7.349655389e-10
7.349390348e-10
7.349393781e-10
7.349809486e-10
7.350691752e-10
7.351665904e-10
7.351776561e-10
-0.001298328795
-0.000317023458
-3.897591105e-05
-0.0001645183984
-0.001921394644
-0.003929497759
-0.002808632643
0.0009505240517
0.0005608882079
0.0001022687243
1.582036511e-05
2.88164183e-06
6.031739325e-07
1.380515005e-07
3.45163185e-08
9.609279582e-09
3.107144082e-09
1.378586886e-09
8.998652106e-10
7.72773893e-10
7.415138497e-10
7.345554589e-10
7.333065573e-10
7.331716358e-10
7.331659764e-10
7.331368815e-10
7.330842005e-10
7.330220194e-10
7.329565217e-10
7.328902021e-10
7.328333552e-10
7.327996497e-10
7.327962906e-10
7.328249209e-10
7.328869097e-10
7.329834188e-10
7.331122353e-10