/*--------------------------------*- C++ -*----------------------------------*\
  =========                 |
  \\      /  F ield         | OpenFOAM: The Open Source CFD Toolbox
   \\    /   O peration     | Website:  https://openfoam.org
    \\  /    A nd           | Version:  10
     \\/     M anipulation  |
\*---------------------------------------------------------------------------*/
FoamFile
{
    format      ascii;
    class       volScalarField;
    location    "0.02498436188";
    object      ddt0(rho);
}
// * * * * * * * * * * * * * * * * * * * * * * * * * * * * * * * * * * * * * //

dimensions      [1 -3 -1 0 0 0 0];

internalField   nonuniform List<scalar> 
5170
(
0.9925048621
-0.7220755642
-0.3971252996
0.3246450331
-0.5183299613
-0.1929206015
-0.2430841908
-0.1862064809
-0.2462936548
-0.2069565199
-0.2351940451
-0.1944551696
-0.2147935235
-0.2099703578
-0.2085509587
-0.2224429023
-0.1955934048
-0.2119655615
-0.2036177608
-0.2068103972
-0.2100482534
-0.2004777859
-0.2080404481
-0.2022972582
-0.2044580092
-0.1901701652
-0.1911885241
-0.1905398337
-0.1899478941
-0.1889981153
-0.2058636897
-0.1857251779
-0.2024216512
-0.1861940219
-0.1991303388
-0.1734146274
-0.1979198332
-0.1898216022
-0.1839173125
-0.1885284639
-0.1287476957
-0.135613864
-0.1626808127
-0.1325970125
-0.1350366136
-0.132290369
-0.1305475707
-0.1094623145
-0.1330396186
-0.1334215019
-0.1435827504
-0.1472933179
-0.1168035752
-0.145909868
-0.1525345792
-0.103579715
-0.1068155945
-0.1117381512
-0.1060271182
-0.1132908225
-0.06537046241
-0.08582907012
-0.09209841279
-0.07951182832
-0.07656399991
-0.05801177212
-0.06232086727
-0.07155656167
-0.05958223358
-0.06322487562
-0.05653116035
-0.05489874528
-0.0519891188
-0.05629362128
-0.05913349329
-0.0481274854
-0.05947973649
-0.04308398918
-0.0595554995
-0.05269649211
-0.05247368861
-0.0514441315
-0.04589475467
-0.04871666991
-0.04685608676
-0.03506412308
-0.04020783226
-0.04900543725
-0.03136459089
-0.04216245853
-0.03943954393
-0.05429974946
0.03957045736
-0.1362197818
0.01924758789
-0.04770049344
-0.1389422248
-0.05689587882
-0.02532431275
-0.117100637
0.1345445076
0.07559021345
0.01110721462
0.1541426722
-0.0944683493
-0.01536374284
0.126881538
0.05770618222
0.09172436639
-0.0510697366
-0.02540251301
-0.01202297427
0.06170436443
0.02400185593
0.07129674411
-0.04211734604
0.008883769952
-0.0001904874794
-0.0334460034
-0.01686524316
0.03775524513
-0.00874616641
0.02513036549
-0.02935171646
-6.865186551e-05
0.03804708315
0.03007965079
0.008680924972
-0.01539439728
-0.008175652591
-0.009428173539
-0.002263122651
0.001276818174
-0.02524244817
0.007711422909
-0.008946276665
-0.01386125748
-0.005144004271
0.0035229685
0.04143913048
0.0237090649
0.0221090303
0.0270968774
-0.01412657917
0.02937239591
0.05437267594
0.02768251635
0.03564464481
0.03636099946
0.04686595833
0.04651572009
0.02333123098
0.02491684399
0.06604292764
0.01760684911
0.02325569522
0.01669633651
0.0243445731
0.03350319852
0.001450845344
0.007760728042
0.03065872376
0.02296054208
0.01653888193
0.01387865627
0.06944847899
-0.05870461726
0.03541922265
0.1182103298
-0.04339017916
-0.1576907006
0.2902478695
-0.1906585687
0.09682576962
0.01716208589
0.01263868136
0.1622419382
-0.2988157571
0.02306984641
0.1441929899
-0.05642860832
0.2556599624
-0.190391953
-0.3472822183
0.3493407245
0.04469284546
0.0579632529
-0.04016396211
-0.07037810291
0.06156162263
-0.1139071845
-0.168391697
0.1075804641
0.4216546546
-0.2499984195
1.06616131
-1.106508715
-0.5410547916
1.206834125
-0.4633261464
-2.577698606
1.311977789
-0.437280964
-0.3808791509
3.499603245
3.322858334
-3.740134973
0.7409956052
0.9011461979
-3.209636501
-0.7574951355
0.9535436944
1.644873867
-0.8089119405
-0.9071203514
-4.37927801
1.60700376
-1.944369984
-1.837914092
-4.589315104
-0.2549565566
0.2095436673
-1.537814764
-2.690210189
-2.017286002
0.1341107498
0.7798507664
1.094442432
-0.8456024679
-1.629854804
1.168601543
-0.3986056078
2.867714278
-0.8694828896
1.152361653
3.351518137
0.2903371239
-0.5971429568
0.87165119
1.205518074
4.659885278
-1.911505762
-1.945521414
1.261625816
0.79072296
-1.905583345
-0.3018020601
0.7883180709
0.6282544967
0.6664450806
0.04738763306
1.381563996
1.563110825
0.945977621
0.8892591958
9.015617029
5.543224038
2.720834651
0.7383382258
0.6751133125
4.346737854
3.440708438
2.117383654
0.520589157
-0.4367510628
-2.404281427
-0.2079905424
0.3319860882
0.1588369346
-0.5177114005
-1.968674194
-2.150094628
-0.9601851494
-1.247615942
-1.67822264
-7.083328147
-3.939618537
-1.080827927
0.04748823063
0.3603223357
-1.765513559
-1.277557933
-0.989337135
-0.6202168365
-0.5475388788
1.321502658
0.8058194271
0.4696053162
0.5112549641
0.5859086278
-0.8480721426
0.1801521632
0.8247684172
0.9851392836
0.8775049186
-0.581977241
-0.2609594189
-1.643734712
-3.965807182
-6.925500637
-1.003889628
-3.122683403
-7.382492094
-13.30663221
-20.22572071
-13.76468513
-16.41497806
-21.00380051
-27.13023109
-33.7547036
-31.15878253
-32.39830548
-35.63039913
-39.95085547
-44.90611085
-44.75453518
-45.47941661
-47.46125323
-50.24744937
-54.070263
-53.69674462
-53.97371388
-55.12555822
-56.72814426
-57.95492142
-56.40556998
-56.66824063
-57.06266618
-57.94069707
-58.62879
-55.12807751
-55.05133519
-55.29499198
-55.62491226
-55.29366808
-50.26776928
-50.80255575
-50.46206752
-50.38568349
-50.28552702
-44.01138479
-44.31931481
-43.87106683
-43.63082935
-43.40743452
-37.09821851
-36.78562195
-36.5995664
-36.29792666
-35.59132393
-29.51131408
-29.67771953
-29.28062192
-29.07146211
-28.32406314
-23.0427525
-22.90367298
-22.80241361
-22.3746959
-22.49652451
-17.07984068
-17.36032082
-17.1955393
-16.80974733
-16.94560561
-12.68086094
-12.73239699
-12.47018117
-12.37448388
-12.56818331
-8.975439385
-8.985286568
-8.923834533
-8.836247309
-8.661474698
-6.073511239
-6.192899574
-6.204314205
-5.928365609
-6.16678313
-4.113457238
-4.035076258
-4.078789424
-4.003980091
-4.014819316
-2.647743934
-2.538429455
-2.632256381
-2.505263736
-2.729794174
-1.349750965
-1.701506359
-1.642278094
-1.502766724
-1.44060475
-1.107229263
-0.9203852771
-0.8774129612
-1.053082108
-0.8278533028
-0.6187945808
-0.534100308
-0.5645660807
-0.5843715011
-0.5621003037
-0.2862609824
-0.3448906777
-0.3690153862
-0.2914946512
-0.45678974
-0.3315676914
-0.1590201877
-0.2030442621
-0.1982055431
-0.3747303505
-0.1691696283
-0.1292511387
-0.1358376675
-0.1087108426
-0.3157721776
-0.1783438369
-0.06569064072
-0.08272110457
-0.1069550832
-0.1419698476
-0.06690710285
-0.08199870424
-0.07777382438
-0.06989204009
-0.01520613228
-0.1152546336
-0.05072045551
-0.05254564647
-0.05841575429
-0.05656727137
-0.09867286841
-0.0472536549
-0.03720576752
-0.0528325675
-0.117583589
-0.09278870796
-0.0336723111
-0.04358502336
-0.03554709408
-0.1677232868
-0.06198296475
-0.0394537742
-0.03411901292
-0.05946295207
-0.07440771911
-0.02764499542
-0.05742056676
-0.03929676406
-0.03986252502
-0.03312593151
-0.01825817154
-0.04442286369
-0.06017511515
-0.03935379277
0.0785508019
-0.1299286622
-0.02378740203
-0.00582945386
-0.0824162241
0.03950629486
-0.01387546885
-0.04881766314
-0.04036012718
-0.02785311237
-0.1308886694
-0.113424029
0.007419281369
-0.06276056833
-0.02112038671
-0.04308704461
-0.09408691243
-0.01318609555
-0.03161735909
-0.04343966587
-0.04164115083
-0.002832678101
-0.04258253651
-0.03250931014
-0.0583013308
0.1104822025
-0.01012843312
-0.03641635268
-0.03193866797
-0.04865857762
0.101490525
-0.01480940434
-0.02953083559
-0.03426869217
-0.03732385815
0.09162372953
-0.0307471304
-0.02085000581
-0.02374614249
-0.0398215565
0.07011900845
-0.02067509659
-0.01923619
-0.02063169046
-0.03806720486
0.05199447203
-0.0002353837568
-0.01440315987
-0.03042708366
-0.03366054116
0.05421981456
-0.007890716331
-0.01599725978
-0.02915865231
-0.03300466413
0.1195596586
-0.03196290603
-0.0128709273
-0.01315437072
-0.04431359055
0.09135649288
-0.004125040756
-0.03465644003
-0.006882411138
-0.02841219272
0.001831878676
-0.0353241891
-0.01190027093
-0.0184162459
-0.02439097848
-0.004003817668
-0.01881275566
-0.01914472036
-0.02303133964
-0.01644467773
-0.001027427861
-0.02869119205
-0.01292479056
-0.0219249729
-0.01856833864
-0.02049423871
-0.01864502189
-0.01507714984
-0.02349916089
-0.013376925
-0.02335483251
-0.02278972744
-0.0141984833
-0.01685950595
-0.01691173749
-0.02577605184
-11.98562478
9.269924692
9.204490417
4.735438911
-1.668918269
-0.03094375412
0.9691742346
1.157753559
0.4314907798
0.3528183518
0.5788192337
0.3103324913
1.310098919
-0.3475717502
-0.9454120821
-2.794412989
0.7245709088
0.5899263284
1.951864544
-9.796406965
-24.38066648
-38.37088695
-49.11835853
-55.49538714
-61.73075563
-59.77638324
-57.08405452
-49.62839715
-42.33174438
-36.03112877
-29.04960541
-20.48134098
-15.55717092
-10.80268881
-8.683356826
-5.415025872
-3.71743561
-1.823179311
-2.177894737
-1.205768598
-0.4775504837
0.087860252
0.4102637749
0.518137044
0.0930744536
-0.314982073
-0.1121028652
0.1794817926
0.385575792
0.0980333489
-0.09019118588
-0.5129976005
-0.2967139246
0.3004713209
-0.04726233744
0.004080565771
-0.5402086829
-0.5047084091
-0.4613934811
-0.3526739979
-0.277090401
-0.2722026223
-0.5305985847
-0.4015868839
-0.0855021741
-0.06929956028
-0.0959299637
-0.009927104138
-0.005602125389
0.01653727337
4.210119482
-3.67451003
2.06105907
-2.308465149
2.297698472
-0.7699381851
-2.228576851
2.433621196
-1.98068508
0.9268040739
0.8424960365
-0.1479457222
3.230700546
-6.19348302
1.899424606
0.01339064592
-0.4211761782
-0.5729615362
-0.07167767284
2.578222308
-0.885045915
0.01912374563
-0.8373056664
1.539108336
0.4663332902
-0.0710866585
-0.2198528864
-0.05738698899
0.5010237403
-0.113618054
0.6931043512
0.9968164673
0.2872075974
1.105715366
-1.507729851
1.582758676
1.023068483
0.3067562198
0.7397363724
-0.8961713244
0.6624660267
0.6922207252
-0.08315682462
0.5576657266
0.454116043
0.07576300905
-0.7889072281
0.1434690721
-1.021306478
0.5105132155
0.3033893497
-0.4283652846
0.0540590265
-0.304813369
-0.2902223657
0.624030744
0.3870771227
0.6624776052
0.3852009427
-0.283378675
0.5081226373
0.375424909
-0.570061061
0.9736231628
0.09926426499
-0.9007211468
-0.06001157956
-0.3533232743
-0.9100316871
0.2214887434
-0.9688319947
0.08422973256
-0.1786647986
-1.007771285
-0.2656771098
-1.340052221
-1.25140581
0.5463228031
-0.05749136216
-1.324089608
-0.09838156919
-0.1928150695
-0.6424599613
-0.5299205496
0.7402848584
0.7923045468
1.637190604
2.994561928
3.948791404
2.842061994
0.8846885299
1.42556087
2.275878159
3.325462532
3.08966992
-12.78838703
-20.89407074
-37.20596476
-75.43408593
-159.5467457
-30.32426656
-41.17357714
-57.19976202
-84.35427371
-126.9713718
-44.42209369
-55.01595565
-68.15150694
-85.41668477
-107.1362113
-53.81544694
-62.92688637
-72.51379385
-82.38982974
-91.69150508
-60.01264216
-65.77965265
-71.59221041
-76.36180466
-79.22783478
-61.86211687
-65.26706881
-67.83986506
-69.21257984
-68.7673255
-60.40528243
-61.68655812
-62.07362738
-61.36123726
-59.28393799
-56.08139522
-56.25474708
-55.39367259
-53.70661182
-51.01354202
-50.0137467
-49.30959498
-47.93624447
-45.78202132
-43.01343877
-42.72110883
-41.72455735
-40.11215128
-37.98390249
-35.34531805
-35.06455143
-34.09780643
-32.57178128
-30.62188601
-28.35840872
-27.8692917
-27.03543013
-25.72813327
-24.09632304
-22.27517193
-21.71029556
-20.87502983
-19.83586344
-18.59369469
-17.1756678
-16.33645092
-15.75196562
-14.96924624
-14.07024393
-13.00941493
-12.07052963
-11.55757062
-11.08348898
-10.37163342
-9.678855141
-8.5174291
-8.305168425
-7.919556474
-7.490250636
-6.980100333
-5.935680243
-5.721551009
-5.524060494
-5.199000756
-4.893036719
-3.930318333
-3.847652824
-3.665413836
-3.528156424
-3.275811042
-2.567618298
-2.465382649
-2.38378571
-2.265808656
-2.146514227
-1.508887676
-1.520153522
-1.509002127
-1.402544336
-1.361697188
-0.9191724839
-0.92809048
-0.910113674
-0.867159948
-0.8244362834
-0.5632354036
-0.5696209729
-0.5246005951
-0.5397334178
-0.4916819529
-0.3708157788
-0.3375540885
-0.3208573002
-0.3253035814
-0.2999217763
-0.2585825411
-0.2030743428
-0.2105013371
-0.1903467594
-0.1979990548
-0.1919199718
-0.1310051255
-0.1334844904
-0.1325434602
-0.1247779489
-0.1105680935
-0.09460920771
-0.09482231169
-0.09186625611
-0.09012300006
-0.0564215455
-0.06755956588
-0.08190905438
-0.06058104771
-0.07665531181
-0.0586713729
-0.04926957223
-0.07377701553
-0.04611424753
-0.06338760084
-0.0730461732
-0.04594782089
-0.06033919598
-0.0406190228
-0.05627150814
-0.08434906175
-0.04417996711
-0.04726378702
-0.04618477877
-0.04321935076
-0.0555083729
-0.04855377623
-0.03586047271
-0.05131796269
-0.03528980627
-0.04130230198
-0.03942404462
-0.04235790014
-0.04180548225
-0.03883761938
-0.002318649619
-0.04126526463
-0.04206809796
-0.03819040425
-0.039233565
-0.02016659223
-0.03807939135
-0.04395583331
-0.03316401192
-0.04204750681
-0.06714375031
-0.03841294515
-0.03637182551
-0.03968285387
-0.03524536945
-0.03668748036
-0.03583002911
-0.03845411235
-0.03399876793
-0.03703065341
-0.04077051555
-0.03297800435
-0.03696903775
-0.03190576298
-0.03494532779
0.009702953794
-0.03684981009
-0.03057382665
-0.03228018101
-0.03159572084
0.009191636539
-0.03270153371
-0.02811373179
-0.03015969762
-0.02807976153
0.00821268271
-0.02879067797
-0.02642577922
-0.02529234275
-0.02698258522
0.0004390301141
-0.02328464512
-0.02434765042
-0.0245237106
-0.02183578495
0.0002018615238
-0.02381671347
-0.02132718398
-0.02061223184
-0.02169984398
0.003651701613
-0.02659970726
-0.01556336685
-0.02145442656
-0.01968787707
0.02426035507
-0.02203020091
-0.0194239585
-0.01762996812
-0.0199902072
0.01290957822
-0.02104412637
-0.01875227442
-0.01850939913
-0.01901262157
-0.01421122722
-0.01932990387
-0.01902291552
-0.01875273382
-0.01875207071
-0.01538715869
-0.01947279458
-0.0188403419
-0.01953782567
-0.01862987058
-0.01345293981
-0.01859250582
-0.02010772824
-0.01872401277
-0.01921335202
-0.02082801294
-0.01789505421
-0.02056839512
-0.01750247082
-0.01954597071
-0.0195774112
-0.01785887903
-0.01906186941
-0.01794342276
-0.01894598125
-0.01971726196
-0.01718522273
-0.0171940929
-0.0172485172
-0.01719738444
0.3104122873
0.7095300085
0.007191736551
0.1027312063
0.02474163597
-0.04389103281
0.03608638354
-0.01052520379
0.02130351291
0.00248376634
0.0154373757
0.01015553445
0.0006720391957
0.009527869921
0.01362050623
0.01407167407
0.01724696548
0.01848613263
0.02044938547
0.02262304925
0.02445804878
0.02677688701
0.02885608315
0.03085944474
0.03302687357
0.03520545146
0.0372867565
0.03920906493
0.04099930896
0.04270842925
0.04425351212
0.04549896157
0.04632973114
0.04668187023
0.04657204079
0.04611270407
0.04528970608
0.04402263519
0.04228232903
0.04001079717
0.03723585159
0.03395216356
0.03019003229
0.02613955297
0.02219161468
0.01821477873
0.01403422922
0.00994308154
0.006217661034
0.002640976206
-0.0006018429787
-0.003373525467
-0.005759134229
-0.007675002963
-0.009103654932
-0.01000209835
-0.01054267844
-0.01098934096
-0.01073431394
-0.008979990249
-0.1221416378
0.1742512277
-0.1352423679
0.128796843
-0.06229738681
0.07521298232
-0.0280897025
0.007469183181
0.002938698537
0.01143897454
0.00715112041
0.007739009423
0.008639135176
0.007415851679
0.006454340666
0.01207822267
0.01594022212
0.01573603191
0.01752495459
0.02026033201
0.0219078184
0.02354489544
0.02564624423
0.02792711397
0.03016344767
0.03241118747
0.03457543508
0.03675335702
0.03883265611
0.04071185389
0.04236794902
0.04376562551
0.04488052372
0.0456690074
0.04611250795
0.04615346187
0.04573927094
0.04482642358
0.0434048094
0.04148182768
0.03908313916
0.03625165348
0.03302958365
0.02948498567
0.02563874676
0.02164569648
0.01764432444
0.01370423526
0.009932288441
0.006403267428
0.003171153839
0.0003120653435
-0.002144485942
-0.004115159092
-0.005626858371
-0.006647468124
-0.007178174232
-0.007410908775
-0.007036667054
-0.005284884082
-1.038039267
-2.780350391
-0.4063905491
-0.02050308567
0.04721444513
-0.01300072398
0.04734110592
-0.02326235643
-0.005661954325
0.007726939652
-0.007608643602
0.005814833589
0.001669857103
0.004278660315
0.002513351489
0.002719585978
0.007211952067
0.008870646275
0.009629192313
0.01103696627
0.01240673101
0.01433407609
0.01632282179
0.01837902725
0.0205516324
0.02275413603
0.02503604053
0.02739208001
0.0296837389
0.0318577752
0.0338989217
0.035794844
0.03745391141
0.03884613629
0.03989997778
0.04058013942
0.04086169704
0.04067977596
0.0400175708
0.03886597047
0.03722437254
0.03511772442
0.03257421739
0.02962688722
0.02635914346
0.02286159404
0.01923029233
0.01557246851
0.01198072958
0.008543593848
0.005341527756
0.002424476375
-0.0001089052295
-0.002214590382
-0.003882878849
-0.005018815659
-0.005680319294
-0.006047088175
-0.00574663805
-0.005071616231
0.03730674996
-1.731245027
-1.674036434
-0.139557079
-0.02053933075
-0.0008881735364
-0.01050172428
-0.01380053598
0.004654469761
-0.01414653603
-0.0001626641241
-0.0002337643379
-0.009479527174
-0.007045701287
-0.00626463706
-0.005021813597
-0.004252339042
-0.002692003546
-0.00219373756
-0.001675138798
-0.0003786714632
0.0009603114866
0.002434253078
0.004163732954
0.006085097806
0.008271780693
0.01057635005
0.01301164276
0.01553380924
0.01805050693
0.02057489337
0.0230447726
0.02538695037
0.02755041982
0.02947574074
0.03108740681
0.03236162863
0.03322884623
0.03364146117
0.03357392821
0.0330031525
0.0319266788
0.03034184713
0.02830418956
0.02583724499
0.02302938563
0.01994630249
0.01669766083
0.01337231333
0.0101024274
0.006967135054
0.003981797662
0.001324289412
-0.001017876158
-0.002961363303
-0.004326000692
-0.005351569947
-0.005812375522
-0.00559312342
-0.004767364522
-0.7755714501
-2.062080645
-2.838353306
-0.5520470225
-0.08974718268
-0.01756353219
0.005155151041
-0.02439385887
-0.0008993727366
-0.008115159488
-0.01467552599
-0.009011429825
-0.01350713462
-0.01906785124
-0.01493632745
-0.01218366554
-0.01568551652
-0.01714319671
-0.01544303029
-0.01524429796
-0.01521360231
-0.01464070389
-0.01356316911
-0.0124507913
-0.01099655808
-0.009117688941
-0.006894796255
-0.004467069245
-0.001826401918
0.001063702611
0.004005698987
0.007059850074
0.01015081639
0.01321230708
0.01612614689
0.0188872331
0.02137425539
0.02350822075
0.02525332025
0.02650806242
0.02727894322
0.02750676948
0.02716157619
0.02626909524
0.02482655231
0.02289142796
0.02052542653
0.01781576146
0.0148654947
0.01182466042
0.008668839842
0.005619750358
0.002850624304
0.0001531227472
-0.002078885993
-0.003839139449
-0.005118880099
-0.005897501961
-0.006608446012
-0.005690194049
-1.60087086
-3.222917326
-4.359617803
-2.1224603
-0.4358532573
-0.07120095258
-0.01117240344
-0.01371123786
-0.008528637654
-0.02017188944
-0.01059260776
-0.01304221231
-0.0170813978
-0.01920108848
-0.02152412521
-0.02420810401
-0.02295217435
-0.02600764757
-0.02803653554
-0.02831652781
-0.02893954387
-0.0293211218
-0.02924389638
-0.02880665028
-0.02800682632
-0.02689840678
-0.02520521376
-0.02297184427
-0.02040047342
-0.01741771178
-0.01411904893
-0.0104993253
-0.0067157437
-0.0027555329
0.00130321883
0.005214298143
0.009013128305
0.01248952951
0.0157336272
0.01849894665
0.02071174267
0.02243031981
0.0235436428
0.02393598004
0.02372072159
0.02281356183
0.02131623585
0.01928170044
0.01685048804
0.01394735909
0.01081986216
0.007848533316
0.004713767773
0.001780596859
-0.000725025282
-0.003150061971
-0.004878343625
-0.006079887484
-0.007097004635
-0.006776805542
-0.7808112531
-1.584136003
-2.344774607
-1.146215093
-1.793730219
-0.3226208366
-0.04625248148
-0.005593689358
-0.01277433821
-0.008538130525
-0.01300561824
-0.007989893053
-0.01830839362
-0.01938747295
-0.01768860191
-0.02675851877
-0.02925255857
-0.0308015501
-0.03425315242
-0.03786957968
-0.03836223464
-0.04047587468
-0.04238695203
-0.04314830101
-0.04292245909
-0.04254303045
-0.04201961086
-0.04065798624
-0.03825629437
-0.03566028381
-0.03219449457
-0.02825632307
-0.02393409768
-0.01927309089
-0.01413661647
-0.009285259747
-0.004013321595
0.0008803798253
0.005572231223
0.009945586584
0.01371689972
0.01702552057
0.01962967961
0.02141293119
0.02242950985
0.02281351007
0.02223052727
0.02098007962
0.01911288117
0.0165422499
0.01372094622
0.01047715041
0.007145379141
0.003800313727
0.0008284062934
-0.002572014886
-0.004573162956
-0.006198575739
-0.007559575471
-0.007315388826
-0.304640932
-0.3807618975
0.2350681454
3.100538004
-2.525490455
-2.174205114
-0.2337958523
-0.04182952218
-0.005005044744
0.001267481279
-0.003877436757
-0.007561085833
0.01003259113
-0.01381724675
-0.02336245441
-0.01558952686
-0.02435455095
-0.03448206716
-0.03500422121
-0.03663774982
-0.04520650739
-0.04327766219
-0.04928195422
-0.05418917191
-0.05417676018
-0.05513089479
-0.05525010518
-0.05529145556
-0.0538051541
-0.05168926098
-0.04868221248
-0.04479694982
-0.04031887823
-0.03541368784
-0.03005792605
-0.02326123181
-0.01777876799
-0.01079672244
-0.005196522079
0.0009791079308
0.006192190415
0.01158010208
0.01544507681
0.01871948543
0.02144665436
0.02258000155
0.02293296617
0.02273030232
0.02205468525
0.01943477111
0.01582526471
0.01311101932
0.009459784488
0.005710326075
0.002011094526
-0.001322142743
-0.003964153222
-0.006234201641
-0.007787272232
-0.008041083126
-0.5574770662
-0.3630049467
-0.7287757758
-0.8548499726
-4.450481085
-9.37014493
-1.538111922
-0.137187958
-0.001364222141
-0.01607035896
0.05601899026
0.0129776547
-0.01717036452
0.02590840057
0.001307283393
-0.02155568369
-0.01405419023
-0.01656650593
-0.03276920059
-0.03963599934
-0.04079072964
-0.04415952378
-0.04972027453
-0.05016004286
-0.05959152738
-0.06151311602
-0.06399143427
-0.06536341814
-0.06515350936
-0.06443159965
-0.06359268785
-0.05905218372
-0.05459928556
-0.05061994589
-0.04483831035
-0.03671858103
-0.0299393389
-0.02400913137
-0.01427820021
-0.00905815709
-0.0003993974622
0.00382413503
0.01335291037
0.01593773149
0.01977095961
0.02257228816
0.02385972143
0.02404828171
0.02340811126
0.02154731771
0.01883865631
0.01544027137
0.01151247491
0.007428846425
0.003372215574
-0.0004638943091
-0.003830528855
-0.006564616016
-0.008460791568
-0.009080075079
-0.007293678797
0.06375937638
-0.3292464414
-1.222112356
-7.604712942
-25.34565462
-8.608447265
-0.6517656351
0.04076334934
0.01555919644
-0.01347445236
0.102595357
0.03537790614
-0.004153335709
0.02640183436
0.02128531341
-0.004109936604
-0.005583485992
-0.01184939915
-0.02631595952
-0.03253126507
-0.03717457295
-0.04413398997
-0.05064013875
-0.05611569165
-0.06111797722
-0.0658759769
-0.06948519336
-0.07155093228
-0.07231677881
-0.07200535172
-0.07022078112
-0.06703970742
-0.06261590833
-0.05683042617
-0.04972540301
-0.04187331028
-0.0334118326
-0.02458129047
-0.01587933942
-0.008032498863
0.000509765122
0.00730267826
0.013032897
0.01781840793
0.02142798616
0.0237830425
0.02486108175
0.02466983757
0.0232001155
0.0206428518
0.01718675421
0.01312931687
0.008705727167
0.004204558348
-0.000112125305
-0.003976767567
-0.007194611615
-0.009521707806
-0.01046255645
0.254424571
1.2021213
0.08520007546
-1.543043902
-8.279185968
-35.05782445
-26.29422438
-2.276088785
-0.1712400016
0.0735544997
0.09012811788
0.07049839302
0.04040168467
0.0564176451
0.06530872864
0.04086603241
0.02216122805
0.02278086518
0.01264591642
-0.003393727046
-0.01748976558
-0.02434740939
-0.03149516099
-0.04012508372
-0.04830389766
-0.05574013592
-0.06257609063
-0.06847002173
-0.07285571601
-0.07571800191
-0.0771536534
-0.07693468181
-0.07481990334
-0.07093951919
-0.06552277702
-0.05874507382
-0.05081813449
-0.04199654391
-0.03268089871
-0.02325826976
-0.01407576064
-0.005272441808
0.002706276652
0.009652508709
0.01540489399
0.01996211301
0.02319254632
0.024949258
0.02525391768
0.02413214373
0.02175098796
0.01832600557
0.01410920556
0.009393975891
0.004500210143
-0.0002536795342
-0.004563283761
-0.008219523743
-0.01096265909
-0.01218495014
1.18422136
0.09707126812
-0.1478095648
-1.702704565
-10.67640661
-41.21203311
-49.14008322
-8.655394138
-0.8314549866
-0.02292328878
0.199496018
0.05108979291
0.1178655016
0.123591957
0.04903860681
0.05079333471
0.07195650374
0.05218980766
0.04336198865
0.02243646484
0.01466848363
0.0007496337326
-0.01278964809
-0.02229767465
-0.0333815421
-0.0444252451
-0.05376068037
-0.06193285059
-0.06884899142
-0.07401079397
-0.07735018256
-0.07886547245
-0.07834975919
-0.07574805573
-0.07127476769
-0.06518004148
-0.05767839924
-0.04903734644
-0.03959526194
-0.0297710106
-0.01999215279
-0.01055514544
-0.001724351382
0.006146768976
0.01275841681
0.0180834069
0.0219978489
0.02433257161
0.02509970391
0.02431618145
0.02211684946
0.01872831307
0.01440589982
0.009458894461
0.004241348829
-0.0008902171763
-0.00559189823
-0.009629385504
-0.01273552861
-0.01420567277
-0.05877656932
0.04008699889
-0.7541678252
-3.917522265
-14.48471821
-44.48134259
-68.62483402
-26.09632266
-1.999334005
0.130462764
0.1363852997
0.07494348986
0.1920266721
0.1452102155
0.09686281081
0.1064185512
0.1018132055
0.08678553326
0.06618287266
0.0540502044
0.04353333478
0.03365461867
0.01576946058
-0.0005065346777
-0.01461919481
-0.02758790254
-0.0393644155
-0.05025874837
-0.05982653004
-0.0674265039
-0.07301174726
-0.07658756831
-0.07799362793
-0.07713402074
-0.07409151419
-0.06909499229
-0.06240209878
-0.05430468867
-0.04513380202
-0.03528090497
-0.02522322894
-0.01537286857
-0.006013669254
0.002513863077
0.009810533038
0.01574243711
0.02022218963
0.02306614796
0.02424015606
0.02376207732
0.02174810446
0.01841122301
0.01402945244
0.008918739834
0.003451263656
-0.001981423224
-0.007001940915
-0.01135156656
-0.01475168004
-0.01642556384
-0.5987089191
0.25031489
-1.965815591
-4.904097269
-19.63886723
-56.65722969
-90.72601284
-48.05522046
-5.574387726
-0.41842212
0.3800846027
0.2680496344
0.1511074497
0.109082262
0.1423797888
0.1888220635
0.172976013
0.1267414562
0.09663693793
0.08200040559
0.07765600298
0.06133590944
0.04450638908
0.02639477338
0.008920275406
-0.006527118103
-0.02094127203
-0.03460685526
-0.04684155536
-0.05712820651
-0.06522987508
-0.07102769291
-0.07447292234
-0.07553812746
-0.07423302119
-0.07066887084
-0.06509046415
-0.05782335807
-0.0492241962
-0.03968358157
-0.0296657527
-0.01965427197
-0.01002628697
-0.001108107236
0.00669197465
0.01308752151
0.01800061127
0.02125879049
0.02276326787
0.02255106321
0.02071125539
0.01744900362
0.01305001121
0.00783812422
0.00220148809
-0.003446065702
-0.008702140019
-0.01328616753
-0.01690808383
-0.01873388829
-0.2253234853
-0.8130214502
-2.046057921
-8.774961677
-30.6652943
-79.93770307
-115.2821487
-69.54716587
-11.23932893
-1.073372981
0.2785193641
0.1397918527
0.1399988931
0.2422335962
0.2457386027
0.1826803758
0.156779341
0.1511963133
0.149032679
0.1353137507
0.1146728666
0.0927065784
0.0742102013
0.05554686929
0.03594558624
0.01649129786
-0.001655648297
-0.01782758295
-0.03203196739
-0.04454847229
-0.05514913655
-0.06332556158
-0.06888256456
-0.0718943386
-0.07239655245
-0.07040181881
-0.0661068668
-0.05985041217
-0.0520205985
-0.04301883488
-0.03328536698
-0.02333562043
-0.01364123831
-0.004549402794
0.003547563776
0.01026740522
0.01549015983
0.01904619716
0.02081556743
0.02082110088
0.01913760786
0.01596445215
0.01158750613
0.006336958686
0.0006082024351
-0.00517033121
-0.01057818853
-0.0153166657
-0.01908199161
-0.02100776818
-1.375536033
-2.597502599
-6.343763733
-18.81228381
-55.26779612
-121.8573676
-142.1299011
-83.89901345
-17.92343394
-2.47291255
0.08222412912
0.2461589533
0.2276941299
0.2464119815
0.2635338681
0.2265464895
0.1968366176
0.1765304384
0.1795719456
0.1716258672
0.1479232302
0.1227728043
0.1011269561
0.0809155246
0.06026830748
0.03927022249
0.01881938086
-0.0001379571323
-0.01711454352
-0.03203109452
-0.04475331524
-0.05494912523
-0.06244635446
-0.06729367018
-0.06949084076
-0.06900410804
-0.06598896896
-0.06079032847
-0.05379980956
-0.04542797865
-0.03612683337
-0.02640796467
-0.01679572106
-0.007688255305
0.0005298902568
0.007440717551
0.01285094032
0.01660490801
0.0185651156
0.01873786889
0.01718982805
0.0141130199
0.009791209762
0.00455473267
-0.001198317304
-0.007030016283
-0.01250515999
-0.01731268014
-0.02115411237
-0.02312529684
-1.724371695
-5.057542255
-14.85258261
-39.69768447
-106.4204036
-176.7424428
-155.4223902
-77.50020797
-25.00831565
-4.541847069
-0.3073860142
0.2683798142
0.3570214517
0.3255175717
0.2795027935
0.2702164001
0.232001864
0.2206480023
0.2071076106
0.1871846852
0.1666671919
0.1475719929
0.1274663063
0.1048608974
0.08113480907
0.05788747117
0.03576593596
0.01497478922
-0.004101361853
-0.02098389368
-0.03545897666
-0.04737809293
-0.05654439057
-0.0629083736
-0.06647691839
-0.06724375519
-0.06533658275
-0.06107462006
-0.0548545596
-0.04709617253
-0.03825817584
-0.02885352474
-0.01942238884
-0.0104090775
-0.002200380706
0.004775146931
0.01026660198
0.0141250128
0.01619883766
0.01648469525
0.01504296313
0.01205999144
0.007813569378
0.002632030504
-0.003085165538
-0.008891911733
-0.01435269627
-0.01917240685
-0.02301704442
-0.02497901452
-5.057708393
-12.0105863
-34.15798771
-101.5186161
-185.577641
-207.8415901
-136.771079
-60.77958055
-20.08927698
-4.721938512
-0.4009061718
0.2880909325
0.2547201758
0.2735370903
0.3016956579
0.3083754019
0.2907728047
0.2634839312
0.2371202095
0.2140186539
0.1919670638
0.1687681776
0.1441060117
0.1191105469
0.09477500037
0.07115962317
0.04804625126
0.0257064561
0.004982287158
-0.01333858797
-0.02902216818
-0.04206512372
-0.05234017822
-0.05972682294
-0.06421538533
-0.06582884179
-0.06468839519
-0.06109799666
-0.05545573656
-0.04818682179
-0.039749875
-0.03065905962
-0.0214536574
-0.01260153433
-0.004498165956
0.002432742437
0.007912406136
0.01178120783
0.01389019622
0.01422942625
0.01285649151
0.009955676372
0.005793837434
0.0007009041229
-0.004923878519
-0.01064572781
-0.01603994917
-0.02079097882
-0.02456440353
-0.02647148186
-10.89280516
-36.25606622
-82.15587031
-178.1071338
-211.3955909
-165.1726031
-89.12576406
-37.04494513
-12.36764934
-2.712835188
-0.03400172073
0.427082476
0.3922872222
0.3564500032
0.3357080964
0.3194355503
0.3006902262
0.2798080039
0.2567391086
0.2313523174
0.2045238742
0.1776998702
0.1517772962
0.1266652444
0.1018920862
0.07719355695
0.0528658692
0.02968922703
0.008418933197
-0.01036679175