/*--------------------------------*- C++ -*----------------------------------*\
  =========                 |
  \\      /  F ield         | OpenFOAM: The Open Source CFD Toolbox
   \\    /   O peration     | Website:  https://openfoam.org
    \\  /    A nd           | Version:  10
     \\/     M anipulation  |
\*---------------------------------------------------------------------------*/
FoamFile
{
    format      ascii;
    class       volScalarField;
    location    "0.02498436188";
    object      ddt0(rho,OH);
}
// * * * * * * * * * * * * * * * * * * * * * * * * * * * * * * * * * * * * * //

dimensions      [1 -3 -1 0 0 0 0];

internalField   nonuniform List<scalar> 
5170
(
-4.510915762e-06
-4.698727718e-06
-4.78075566e-06
-8.024534414e-07
2.823956228e-08
-4.7192194e-06
-4.719715442e-06
-3.820131998e-06
2.901663945e-06
4.740075625e-06
-3.317864358e-06
-2.424060026e-06
-4.7152905e-07
3.638194785e-06
2.865486106e-06
3.128052399e-06
1.967361724e-06
-8.198842624e-07
-5.938068776e-06
2.732353205e-06
-1.857240686e-06
-5.611603335e-07
2.280229372e-06
2.437480027e-06
-2.733006837e-07
1.715611195e-06
3.835729446e-07
-2.304891321e-06
-1.946083005e-06
3.333441712e-06
1.460136083e-07
1.464464672e-06
3.928577181e-06
2.496437809e-07
-4.033232811e-06
-1.167100739e-06
-2.428158673e-06
-3.073160644e-06
4.128393143e-07
3.439635351e-06
3.258130407e-06
2.32031762e-06
4.918871361e-07
-1.782007569e-06
-2.736403773e-06
-9.797583069e-07
1.463469706e-07
1.77082069e-06
2.970442955e-06
2.245127931e-06
-2.067987522e-06
-1.14307904e-06
-2.173678529e-08
1.287986891e-07
-1.995890336e-06
-1.744028741e-06
-2.450962061e-06
-1.611974109e-06
-2.231034547e-06
-2.466764143e-07
-1.046380077e-06
-1.745625765e-06
-2.289836527e-06
-1.255406404e-06
2.099698747e-06
-1.296342396e-06
-1.902154509e-06
-2.071002509e-06
-6.512799799e-07
1.813161333e-06
-2.126751787e-06
-1.295493939e-06
-1.12680989e-06
-1.111045387e-06
2.221208128e-06
4.15423344e-07
8.781262749e-07
7.38204609e-07
-1.866646768e-06
1.563132781e-07
1.389427543e-06
7.965972584e-07
1.148215899e-06
1.526159106e-06
-2.122837956e-06
-2.135058567e-06
-1.626279238e-06
-2.191656236e-06
-8.478969003e-07
2.244430392e-06
1.558508224e-06
1.154869785e-06
1.912291187e-06
1.113719949e-06
-2.20704022e-06
-4.167316302e-07
-2.392907153e-06
-1.564932919e-06
1.197083745e-06
1.640698415e-06
-0.0007062285796
-0.0004154653687
-0.0004678287138
3.897386657e-05
-0.0005299737573
-0.002628730766
0.002902946062
0.002529200088
0.001484489237
-0.005661510644
-0.001528736936
-0.0001654693766
-1.008803311e-07
-0.0003740438508
-0.0006180937698
-0.0004109707306
0.0003196376296
0.0006156628195
-0.000921039174
-0.0008742422669
0.002642139738
0.0002514168795
0.001120593596
-0.002058448593
-0.000847594667
0.001481233709
0.0005713406921
-0.00017372363
-0.001301077249
-0.001736721866
-0.0006126343701
0.0004306000832
0.001473025067
-0.001392851856
-0.001930628694
-0.001785736845
-0.0007730248716
0.0002042064793
-3.548624831e-05
-0.002909537706
-0.003311972964
-0.001251383852
-0.0007903745794
-0.001738629401
-0.003393273956
-0.00372229909
-0.00499103976
-0.002885100223
-0.002600900361
0.000554461032
0.001376182137
-0.003848471779
-0.003079965691
0.005012610949
-0.0001024852838
0.0003532997223
-0.00249929407
-0.002635013958
0.0001443389119
-0.0007419015149
-0.0003903739784
0.0001805242854
-2.251700375e-06
-0.0001023376083
-0.0008043846149
-0.0007337705834
-5.938923104e-05
0.0001004870887
-0.0007003934154
-0.0008689209852
-0.0009278719156
-0.0005208408499
-0.0008931225162
-0.0006629827139
-0.0006931479332
-0.0007756184414
-0.0006086552822
-0.0009760456472
-0.0007426854909
-0.0003823688385
-0.0007458837891
-0.0006005889214
-0.0009684822022
-0.0009774413681
-0.001284175566
-0.0004246323113
-0.0006377919721
-0.0007261011907
-0.0005160548725
0.0002485804521
-0.001654010836
-0.0007136437099
-0.0005064632504
-0.001293375721
8.33640329e-05
0.002160511722
-0.002066279496
-0.0002825696025
0.0007071741497
0.0004187800627
-1.254532565e-06
1.585209956e-06
1.460082434e-06
6.665064893e-07
2.139370701e-05
1.622326296e-06
1.494736756e-06
1.755760086e-06
1.193758619e-06
-2.106430098e-05
1.057813361e-06
-2.068142207e-07
-3.195219404e-05
-2.367726814e-06
-1.49489585e-05
-1.149503474e-06
-2.905729534e-07
-4.5555826e-05
7.832712288e-07
6.611790547e-06
1.065527115e-06
-1.599124591e-05
0.001348950028
-2.015012683e-05
-5.549269125e-05
-1.447795273e-06
2.085241284e-06
-0.000172565156
3.568199571e-06
7.418163494e-05
1.147024956e-06
1.200791293e-06
-8.658150095e-07
-4.526903102e-06
-1.155980547e-05
-4.836404486e-07
-3.49676689e-06
8.811206338e-07
-3.419333246e-06
-4.400252361e-05
-1.113316499e-06
-3.256914092e-05
1.661911839e-06
7.913898221e-06
4.4973801e-05
1.895792816e-07
6.486442228e-06
-7.14727168e-07
2.575181675e-07
6.04222253e-07
1.371183212e-06
-1.192969775e-06
-7.983797376e-07
-3.390009246e-06
-4.565359842e-06
9.10661982e-08
-5.064698857e-07
-3.933113009e-07
-2.197379517e-06
-8.545269082e-06
-2.1817536e-07
-6.747050836e-08
4.60935601e-08
-1.589037083e-06
-1.061583059e-05
-1.967765557e-07
5.160008212e-08
7.430698827e-07
3.25089914e-06
4.925118941e-06
-9.285125896e-08
9.61546064e-08
9.801079787e-07
2.756052347e-06
-1.90973668e-05
1.415594404e-08
4.938001638e-08
8.85915287e-07
5.558157702e-06
2.118127345e-05
9.093832672e-08
-4.686160182e-07
-1.934809841e-05
3.320450991e-06
5.419715565e-05
-2.44452627e-07
2.168776044e-07
-4.901702676e-06
3.333428922e-05
0.00040583763
1.287528851e-05
-3.645775203e-06
-2.850013818e-05
-0.0001500851676
-0.0003466766674
-3.353461506e-06
-4.880927623e-06
-2.690833258e-06
1.62027311e-05
0.0001629514947
-5.309864383e-06
-6.449747633e-06
-4.344866838e-06
2.268017322e-05
0.000156614249
-5.693467414e-06
-6.511557365e-06
-6.591930436e-06
1.443852905e-06
4.246807141e-05
-1.76604703e-06
-1.345046969e-06
-1.617488199e-06
-4.050430474e-08
7.448395792e-06
-6.723380298e-08
2.843457599e-06
6.154954077e-06
4.99659293e-06
6.537977423e-06
3.300797974e-06
3.333315865e-06
3.577395766e-06
5.562049246e-06
5.170821159e-06
2.65978409e-06
2.774179766e-06
2.918707822e-06
2.531972036e-06
3.184774271e-06
1.515668395e-06
1.548027447e-06
1.64962265e-06
1.671787475e-06
1.750741186e-06
8.531365602e-07
8.560388371e-07
8.637925531e-07
8.844626264e-07
8.660541198e-07
4.514307448e-07
4.490017008e-07
4.569545923e-07
4.404042635e-07
4.203156765e-07
2.310151942e-07
2.326703466e-07
2.304896803e-07
2.273823019e-07
2.197257063e-07
6.892574429e-08
6.784883955e-08
7.498521387e-08
9.239658999e-08
8.693793639e-08
3.8944305e-08
3.878511372e-08
3.817783982e-08
3.824783264e-08
3.677021092e-08
1.415306891e-08
1.311809517e-08
7.629832915e-09
6.133935294e-09
6.333209331e-09
1.047092069e-09
8.83802132e-10
4.536960904e-10
-9.7487464e-11
-7.644566203e-10
-6.564240909e-09
-6.762526689e-09
-5.939892444e-09
-6.418641043e-09
-7.589581602e-09
-9.75644627e-09
-9.958629023e-09
-1.038685136e-08
-1.101877911e-08
-1.137665594e-08
-8.466959172e-09
-9.155538212e-09
-1.41917857e-08
-1.519642179e-08
-1.516061096e-08
-2.614215228e-09
-2.8979879e-09
-4.063812774e-09
-9.679344163e-09
-1.105748492e-08
-7.792425446e-10
-9.660773418e-10
-1.361666511e-09
1.984071901e-09
-1.919673534e-09
8.529664003e-09
4.905066513e-09
4.04561915e-09
1.861928987e-08
1.857233525e-08
1.532210738e-08
1.551340609e-08
1.576977475e-08
1.62063771e-08
1.684873063e-08
1.154819168e-08
1.182241632e-08
1.218554555e-08
1.232864506e-08
9.963776813e-09
-1.660346908e-08
4.770392778e-09
7.684706417e-09
8.387702656e-09
4.158686847e-09
3.654298168e-09
4.057057207e-09
4.405292776e-09
4.708795686e-09
4.515110082e-09
2.630091429e-10
-1.211318383e-09
-9.952058377e-10
-7.922463653e-10
-2.011786971e-09
-7.167928818e-09
-7.279113817e-09
-7.583220459e-09
-7.406908009e-09
-6.217999139e-09
2.673776888e-09
2.666677885e-09
3.892853466e-09
4.144565976e-09
-2.71417122e-09
-1.105513598e-08
-9.690576166e-09
-1.502597544e-09
-2.570833326e-10
1.103075105e-09
-2.060347058e-09
-2.195583411e-09
-2.27822975e-09
-2.3533959e-09
-1.647895798e-09
-1.189574464e-09
7.534196285e-10
1.947368619e-10
3.062012155e-11
4.579948221e-10
2.015646366e-08
1.687733084e-08
-1.806902991e-08
5.534262048e-09
-9.915049359e-09
8.938082712e-09
9.680970811e-09
-2.53794036e-09
-1.782036558e-09
-1.166100013e-09
-3.605637604e-09
-3.339658811e-09
-2.934383682e-09
-2.408080914e-09
-1.98820874e-09
-5.228363118e-09
-5.033680843e-09
-4.683036527e-09
-4.241109718e-09
-3.975542333e-09
-9.707575681e-09
-9.407670448e-09
-8.890123372e-09
-8.039275129e-09
-7.230057732e-09
-2.503606097e-08
-2.492477622e-08
-2.483364601e-08
-2.452291995e-08
-1.363635226e-08
-4.897935366e-09
-4.452033106e-09
-3.612277056e-09
-2.469370535e-09
-1.755311603e-09
-1.070611024e-08
-1.017372316e-08
-9.168531204e-09
-7.752085535e-09
-6.701656395e-09
-2.628866421e-08
-2.559283092e-08
-2.415449368e-08
-2.188581113e-08
-1.93801895e-08
-4.658657615e-08
-4.55740883e-08
-4.317122877e-08
-3.623489686e-08
-3.035062151e-08
-1.132724105e-07
-1.141174972e-07
-1.154076095e-07
-1.178077726e-07
-1.145867349e-07
-2.736356826e-08
-2.75450579e-08
-2.831600906e-08
-3.002946489e-08
-3.461073074e-08
-2.262031514e-08
-2.92959636e-08
-3.779765054e-08
-5.070732422e-08
9.212598229e-08
1.278307727e-07
1.243792627e-07
1.191817723e-07
1.097539746e-07
9.240599564e-08
-1.024026951e-07
-1.024408774e-07
-1.022697325e-07
-1.025171336e-07
-1.034687143e-07
3.932021259e-08
4.299803607e-08
4.410652303e-08
5.996777279e-08
4.287956988e-08
-3.318585382e-08
1.17460921e-08
1.294500346e-07
3.680982859e-07
1.385653811e-07
2.501552941e-07
2.564597006e-07
2.629798207e-07
2.671316073e-07
2.297141702e-07
-4.965150026e-07
-4.973568663e-07
-5.011628283e-07
-5.13237116e-07
-5.193882988e-07
-3.993832425e-07
-3.979766426e-07
-3.96063594e-07
-4.06299238e-07
-4.080950818e-07
-0.002651040755
0.0003921083754
1.968169468e-05
6.533081527e-05
-0.0005014666412
0.0003311259746
0.0001061144111
0.0001207250092
0.0001989005243
-0.0002859433908
-6.442496651e-06
-1.462965077e-05
2.096402e-05
-2.170985233e-05
-0.0002376543697
3.290924297e-05
-5.19456596e-05
0.0001458896528
-0.0002879348566
0.0006103344016
0.0004945860375
0.0001458601323
2.57477246e-05
1.011502287e-05
5.405051203e-06
3.598827976e-06
1.796254407e-06
8.652250769e-07
3.624021091e-07
2.128743016e-07
8.501334081e-08
3.413257429e-08
9.86239164e-09
-1.101216819e-09
-8.185592636e-09
-1.153878247e-08
-1.544443287e-08
-9.908673297e-09
-4.797713805e-09
1.603223651e-08
1.752156072e-08
-2.278436858e-09
4.685103457e-09
4.166194911e-09
-9.034261077e-09
-1.274124781e-08
1.076580678e-08
1.513669353e-09
1.242066976e-10
-4.641682901e-09
7.238665433e-09
-1.323004332e-09
-2.091614225e-09
-4.266090257e-09
-7.376383734e-09
-1.799763609e-08
-3.146622474e-09
-7.824022906e-09
-1.906265986e-08
-3.087079127e-08
-9.754964142e-08
-4.21144185e-08
5.853100997e-07
1.680318006e-07
-9.401167246e-08
8.797560068e-08
-4.223827475e-08
2.302412265e-07
-4.446474393e-07
-3.172257879e-07
-0.00904895005
-0.01288200803
0.005280234046
-0.002770141556
-0.0001343687555
9.367433581e-05
0.01088672133
0.008186352538
-0.0006898168666
0.0006679822644
-0.0001489107248
-0.0009439118029
0.006729993126
-0.00677293031
0.002427532941
-6.198916996e-05
-0.001059001593
-0.002374274585
-0.01099575275
-0.0005564174077
-0.0003917277833
0.0005695150491
0.01712412526
0.008170819153
-0.001027155032
1.896774271e-05
6.841999436e-05
0.0006001804076
0.00532901127
0.003325411698
0.0003246990459
0.0001927369372
0.0008283178531
0.02277479142
0.008092730349
-0.0001836249751
-0.0001587522078
0.0005076849615
-0.01247488097
-0.001530829632
0.000786930849
0.002200713969
-0.0003047106579
0.02069537292
0.002635264149
-0.0004892459337
-0.001841507526
-0.002205555071
-0.006770412802
0.002005684108
-0.0001340032709
-0.0006750238698
0.0002843406715
0.01385910288
0.003599539757
2.639022704e-05
-7.694169105e-05
-5.562402313e-05
-0.005890842004
-0.06077624701
0.0003027806004
0.006752949412
0.0001545089629
-0.001493320908
0.001990103355
-0.0001484047511
-0.001223779789
-4.100447822e-05
-0.0003074553137
-0.0006568923448
-7.954257672e-05
-0.001554605651
-0.000181144396
-0.0006266123577
-0.02517523186
5.199907661e-05
-0.001552555044
0.002750642114
-0.001185693849
-0.02333692932
-0.0003147520402
-0.002361788043
-0.004422017272
-0.005993710448
-0.03759733383
-0.0001723175108
-0.0009592762598
-0.003683592057
-0.01483607523
-0.06129766105
-0.0004430820781
-0.001718713733
-0.006357217578
-0.02191261406
-0.06704466285
0.00170781544
0.008546905797
0.04037671776
0.2140684147
1.281900316
0.00135389844
0.00540245801
0.01659275322
0.04404777234
0.1302490067
0.0004377872652
0.001706361361
0.004962974507
0.01122529387
0.0199841755
8.070568849e-05
0.0003097494236
0.0008826608974
0.001943611418
0.00309357663
1.830013214e-05
4.912844976e-05
0.0001188677
0.0002418332432
0.0003692875049
9.859512211e-06
1.192719069e-05
1.89332066e-05
2.987940705e-05
4.059385608e-05
3.899122922e-06
4.482508996e-06
4.951478528e-06
5.322101821e-06
5.514242158e-06
1.942074211e-06
2.155149491e-06
2.148806791e-06
1.973078275e-06
1.684464033e-06
8.90977119e-07
9.176940573e-07
1.027455306e-06
9.046447201e-07
7.061019974e-07
1.658134247e-07
3.856223871e-07
4.097274129e-07
3.233288779e-07
2.791408877e-07
1.93288351e-07
1.817063216e-07
1.818148173e-07
1.639161173e-07
1.297002858e-07
8.464438358e-08
7.455141155e-08
6.674397324e-08
6.108308699e-08
4.97412599e-08
3.129397554e-08
3.757011133e-08
3.355013046e-08
2.932115835e-08
1.296556758e-08
1.085372106e-08
9.635692117e-09
7.890325093e-09
4.563315302e-09
-3.034746835e-10
-2.544601249e-09
-4.417753966e-09
-5.313695911e-09
-8.139528029e-09
-1.159548215e-08
-8.399678769e-09
-9.801826931e-09
-1.366219802e-08
-1.314816267e-08
-1.928390485e-08
-7.262244866e-09
-1.777493185e-08
-2.114261558e-08
-2.062871073e-08
-2.451952059e-08
-1.735469357e-08
-1.779759694e-08
-2.234484777e-08
-2.638646372e-08
-5.355520932e-08
-1.165012997e-08
5.425669463e-09
-1.354126766e-08
-2.008118978e-08
-4.657458381e-08
9.265039209e-09
1.448369911e-08
-2.485414472e-09
-5.741213196e-09
-2.406380415e-08
9.245479022e-09
1.240148369e-08
9.738768254e-09
-1.205235e-08
3.508448657e-08
1.800095049e-08
1.676830665e-08
7.767685645e-11
1.555442259e-08
2.680933841e-08
-5.371387877e-09
1.64122055e-08
1.422593733e-08
2.275416252e-08
2.531019448e-08
1.184895309e-08
1.091947123e-08
1.278176767e-08
1.555009226e-08
1.261685321e-08
6.493012509e-09
5.149340163e-09
2.462463792e-09
4.996644514e-09
-6.095146553e-09
-6.283881289e-09
2.56469606e-09
-1.187900881e-08
1.081339803e-10
6.084222181e-09
-2.782786951e-08
3.67694015e-09
-1.992768019e-09
5.190306508e-09
-1.09479455e-08
-3.065207543e-08
1.09559285e-08
-1.890878537e-10
2.247505472e-09
-3.856748927e-09
2.600218184e-09
-3.744275674e-09
-2.792275183e-09
-2.165801867e-09
-5.075437709e-09
-1.752053397e-09
-8.448830183e-10
-6.111822368e-10
-4.136593958e-09
1.931937636e-09
-3.868040898e-09
-3.246300253e-08
-3.581670238e-09
8.513920212e-09
-4.286610666e-09
7.604439508e-09
1.0428956e-08
1.407621104e-08
2.399085031e-09
4.167572154e-09
5.648708138e-10
1.814438604e-09
2.897212795e-09
3.885317453e-09
4.392623805e-09
-2.387842498e-10
1.072600242e-09
2.054961666e-09
2.475332763e-09
2.17369926e-09
-2.878325906e-09
-2.285878074e-09
-8.638721596e-10
-5.542186068e-10
-1.011169928e-08
-6.659412814e-09
-1.453900985e-08
-1.420847635e-08
-1.725267432e-08
9.393436921e-09
-1.410719168e-08
1.74971429e-09
7.021629271e-09
9.086549338e-09
1.079483174e-08
1.627661169e-09
4.274050329e-09
6.618461075e-09
8.765008539e-09
1.050071095e-08
-2.509503607e-09
8.483957395e-10
4.448553271e-09
8.486256429e-09
1.289158827e-08
-1.119226513e-08
-3.125984555e-09
6.159107525e-09
1.916801719e-08
2.766450939e-08
-1.06787148e-08
-9.478945456e-09
-1.261685598e-07
-1.075270376e-07
-1.311546488e-07
-1.411261071e-07
-1.535318387e-07
-8.571163553e-08
-1.115217994e-07
-1.406101384e-07
-3.741502543e-08
-5.419769676e-08
-8.370013347e-08
-1.378684404e-07
-1.89601437e-07
2.837888648e-07
1.153190428e-08
-1.601419406e-08
-3.213274475e-08
-2.839722881e-08
1.413851766e-07
5.585927759e-08
5.74754403e-08
6.857750138e-08
8.152305345e-08
-1.067074581e-07
-2.056639915e-09
-1.555441376e-08
1.150750426e-07
8.064223338e-08
1.259198743e-08
5.135718771e-08
4.005556611e-08
1.487378537e-07
1.103189728e-07
-2.077664292e-08
2.696369105e-07
4.990782281e-07
4.086414034e-07
4.150192227e-07
3.576451346e-07
4.547984495e-07
-4.271955619e-07
-3.549190933e-07
-3.313298277e-07
-4.770925848e-07
-4.077849761e-07
-3.351357719e-07
-2.85302121e-07
-2.47315113e-07
-2.247479382e-07
-2.443575389e-07
-1.014799969e-06
-4.509351397e-08
-1.001236147e-07
2.381668511e-05
9.884066549e-06
-9.049880974e-07
-7.50194459e-06
-7.563590545e-06
7.751587322e-06
7.699437085e-06
7.765207413e-06
-7.561842768e-06
-7.508269604e-06
-7.502573396e-06
-7.502552868e-06
-7.502512317e-06
-7.512722307e-06
-4.82913192e-06
-2.133093878e-06
-9.364198699e-07
-4.081623638e-07
-1.764982708e-07
-7.566387864e-08
-3.213774611e-08
-1.351741426e-08
-5.627611799e-09
-2.318091617e-09
-9.44397717e-10
-3.804114138e-10
-1.514586648e-10
-5.958717916e-11
-2.315856791e-11
-8.889072734e-12
-3.368794753e-12
-1.260240888e-12
-4.652431875e-13
-1.694488214e-13
-6.087114334e-14
-2.156148393e-14
-7.528663149e-15
-2.590628769e-15
-8.782444533e-16
-2.932388613e-16
-9.640347004e-17
-3.119771448e-17
-9.935643936e-18
-3.113038186e-18
-9.593577306e-19
-2.907192567e-19
-8.660858424e-20
-2.535970641e-20
-7.296753881e-21
-2.062659147e-21
-5.727314922e-22
-1.561768166e-22
-4.1815908e-23
-1.099104656e-23
-2.835095732e-24
-7.167127857e-25
-1.761452248e-25
-4.02401937e-26
-6.310626263e-27
-3.769592103e-28
5.371619542e-05
6.669808605e-05
-4.572318375e-06
-7.524377015e-06
7.803289486e-06
-7.583808944e-06
-7.552414007e-06
-7.553734431e-06
-7.570635325e-06
7.872505206e-06
-7.567390464e-06
-7.501214629e-06
-7.501198475e-06
-7.501126117e-06
-7.510426689e-06
-7.519839552e-06
-4.836024747e-06
-2.15453382e-06
-9.490547344e-07
-4.133606774e-07
-1.780110586e-07
-7.578745543e-08
-3.189469656e-08
-1.326606034e-08
-5.452504155e-09
-2.2141467e-09
-8.881706728e-10
-3.51873438e-10
-1.376554964e-10
-5.316561829e-11
-2.026784196e-11
-7.624794649e-12
-2.830042064e-12
-1.03608943e-12
-3.740523222e-13
-1.331329091e-13
-4.670251919e-14
-1.614277884e-14
-5.496404575e-15
-1.842968757e-15
-6.083570184e-16
-1.976555738e-16
-6.31953651e-17
-1.987607905e-17
-6.147837562e-18
-1.86971998e-18
-5.589715975e-19
-1.642345338e-19
-4.741440504e-20
-1.344744177e-20
-3.746005007e-21
-1.024743346e-21
-2.75232648e-22
-7.256640503e-23
-1.877404457e-23
-4.757714145e-24
-1.17036688e-24
-2.631873776e-25
-4.084268902e-26
-2.573721543e-27
6.304237165e-05
1.384122917e-05
4.054345381e-06
-7.503178508e-06
-7.542997871e-06
-7.547797412e-06
7.787183199e-06
7.745549623e-06
7.809261479e-06
-7.687253652e-06
7.880186162e-06
-7.573009703e-06
-7.501253302e-06
-7.501225575e-06
-7.501174444e-06
-7.502353888e-06
-7.515210591e-06
-6.736281791e-06
-3.043083016e-06
-1.354192209e-06
-5.9406777e-07
-2.570485854e-07
-1.097438709e-07
-4.62416914e-08
-1.923232808e-08
-7.895807406e-09
-3.199806809e-09
-1.279939745e-09
-5.053052975e-10
-1.968626753e-10
-7.567515334e-11
-2.869781234e-11
-1.073411158e-11
-3.959256758e-12
-1.439769649e-12
-5.160595605e-13
-1.822741106e-13
-6.342428857e-14
-2.173580676e-14
-7.334434284e-15
-2.436155006e-15
-7.962853682e-16
-2.560871519e-16
-8.101674725e-17
-2.520339625e-17
-7.707704567e-18
-2.316882334e-18
-6.843931534e-19
-1.986264586e-19
-5.662579416e-20
-1.585464285e-20
-4.358978549e-21
-1.176579938e-21
-3.117256426e-22
-8.102273616e-23
-2.060413879e-23
-5.05866579e-24
-1.111125113e-24
-1.661502646e-25
-1.015124359e-26
-0.0001556193607
9.604675835e-07
3.213352412e-06
-6.845196155e-06
-7.501203671e-06
-7.500487753e-06
-7.547854245e-06
-7.623523722e-06
7.762050735e-06
7.825033169e-06
-7.703296355e-06
7.892103002e-06
-7.579065097e-06
-7.501313552e-06
-7.501269651e-06
-7.502501549e-06
-7.502505543e-06
-7.504897584e-06
-7.583942128e-06
-3.533761051e-06
-1.580069798e-06
-6.956059755e-07
-3.016988989e-07
-1.28977948e-07
-5.436752794e-08
-2.260208521e-08
-9.268388693e-09
-3.7491768e-09
-1.496049521e-09
-5.88863712e-10
-2.286148249e-10
-8.75308543e-11
-3.304594891e-11
-1.229977938e-11
-4.512431312e-12
-1.631406743e-12
-5.810988173e-13
-2.038761603e-13
-7.043690779e-14
-2.395729873e-14
-8.019967483e-15
-2.641653688e-15
-8.558901958e-16
-2.727466839e-16
-8.547245576e-17
-2.632956824e-17
-7.970545049e-18
-2.370808578e-18
-6.927854439e-19
-1.988414572e-19
-5.604559403e-20
-1.551061065e-20
-4.21397126e-21
-1.123611336e-21
-2.937898454e-22
-7.502878274e-23
-1.833811287e-23
-3.92518965e-24
-5.626242193e-25
-3.31917704e-26
6.649176278e-06
3.417826408e-05
7.551039409e-06
3.992766116e-06
7.761752127e-06
-7.571851644e-06
7.773612458e-06
7.736668199e-06
7.795292912e-06
-7.723439505e-06
7.916664892e-06
-7.718963784e-06
7.903397288e-06
-7.579003907e-06
-7.501463717e-06
-7.502821834e-06
-7.50272104e-06
-7.501132896e-06
-7.501317933e-06
-7.518280059e-06
-3.631066319e-06
-1.630045238e-06
-7.195237119e-07
-3.125765612e-07
-1.337244152e-07
-5.636501947e-08
-2.341509954e-08
-9.588802546e-09
-3.87141554e-09
-1.541113455e-09
-6.048589801e-10
-2.340459061e-10
-8.92748511e-11
-3.356420165e-11
-1.243561812e-11
-4.53958632e-12
-1.632406589e-12
-5.780988517e-13
-2.015724631e-13
-6.918421921e-14
-2.336823916e-14
-7.765637638e-15
-2.538191182e-15
-8.157460176e-16
-2.577711716e-16
-8.007487306e-17
-2.444515117e-17
-7.331329675e-18
-2.159710268e-18
-6.2485671e-19
-1.775264292e-19
-4.951804735e-20
-1.355810131e-20
-3.642605215e-21
-9.588508104e-22
-2.458495349e-22
-5.975200881e-23
-1.246940457e-23
-1.715005306e-24
-9.800595817e-26
0.002338755511
0.0002510716192
2.515671322e-05
4.952777633e-06
5.9717821e-06
7.729765957e-06
7.696586999e-06
7.788819287e-06
-7.617958148e-06
-7.611760197e-06
7.894165973e-06
-7.697113102e-06
7.882469217e-06
-7.593215997e-06
-7.501580483e-06
-7.503162669e-06
-7.502949019e-06
-7.501222248e-06
-7.501112174e-06
-7.502367941e-06
-7.437637876e-06
-3.422610353e-06
-1.543243065e-06
-6.830983749e-07
-2.972063831e-07
-1.272176511e-07
-5.360795043e-08
-2.224853951e-08
-9.09703016e-09
-3.665293585e-09
-1.455369713e-09
-5.695140306e-10
-2.196270186e-10
-8.346003146e-11
-3.124823655e-11
-1.152535911e-11
-4.186790858e-12
-1.497657709e-12
-5.274101152e-13
-1.828039782e-13
-6.234783554e-14
-2.091946018e-14
-6.903370157e-15
-2.239882768e-15
-7.143963995e-16
-2.239515779e-16
-6.899521104e-17
-2.088459471e-17
-6.209113277e-18
-1.812720896e-18
-5.196204602e-19
-1.462325899e-19
-4.039198233e-20
-1.094427813e-20
-2.902552989e-21
-7.46868158e-22
-1.803170143e-22
-3.673677062e-23
-4.863941247e-24
-2.704250891e-25
0.00567875396
0.0006175233995
7.925319928e-05
9.731299038e-06
-1.391697269e-07
7.732662697e-06
-7.555846721e-06
-7.543650737e-06
-7.605603682e-06
7.929097238e-06
-7.740311033e-06
7.93331191e-06
-7.736520762e-06
7.919771984e-06
-7.585516122e-06
-7.503529562e-06
-7.503236124e-06
-7.501344151e-06
-7.501205538e-06
-7.501090433e-06
-7.506487672e-06
-6.549473356e-06
-3.032246775e-06
-1.372857014e-06
-6.092309057e-07
-2.654166717e-07
-1.136465593e-07
-4.786530683e-08
-1.984160444e-08
-8.09846013e-09
-3.255482358e-09
-1.289092142e-09
-5.028483136e-10
-1.932283456e-10
-7.314011437e-11
-2.726719315e-11
-1.001053959e-11
-3.618479192e-12
-1.287526245e-12
-4.508702158e-13
-1.553508536e-13
-5.265508333e-14
-1.755193893e-14
-5.752571857e-15
-1.85327115e-15
-5.867534667e-16
-1.825327824e-16
-5.57896839e-17
-1.675031421e-17
-4.938877786e-18
-1.429706383e-18
-4.062515923e-19
-1.132847335e-19
-3.097322091e-20
-8.278017769e-21
-2.137007152e-21
-5.122723588e-22
-1.020465706e-22
-1.30541078e-23
-7.090564877e-25
0.001624783966
0.000476869582
8.460451207e-05
1.38191335e-05
-2.650140474e-05
7.805416971e-06
-7.561583929e-06
7.759923269e-06
7.827068492e-06
-7.625204612e-06
-7.619372757e-06
7.906707611e-06
-7.712042318e-06
7.897939023e-06
-7.600741226e-06
-7.50383419e-06
-7.503557715e-06
-7.501499424e-06
-7.501335786e-06
-7.501194774e-06
-7.501065363e-06
-7.512005778e-06
-5.530585906e-06
-2.571133256e-06
-1.167375611e-06
-5.189042106e-07
-2.262131632e-07
-9.684046063e-08
-4.074841979e-08
-1.686465576e-08
-6.868633982e-09
-2.753817901e-09
-1.087083389e-09
-4.22570717e-10
-1.617538255e-10
-6.096894642e-11
-2.26265676e-11
-8.266527291e-12
-2.972670973e-12
-1.051974423e-12
-3.662747611e-13
-1.254457461e-13
-4.225240984e-14
-1.399241665e-14
-4.554917254e-15
-1.45719533e-15
-4.580410445e-16
-1.414352114e-16
-4.28970078e-17
-1.277814511e-17
-3.737624341e-18
-1.073159403e-18
-3.023014021e-19
-8.343918118e-20
-2.246931189e-20
-5.815664859e-21
-1.383871809e-21
-2.699201068e-22
-3.346053875e-23
-1.780916901e-24
-0.001905624017
0.0002474042779
0.0002495053711
4.312656738e-05
2.336168229e-06
0.0001441034471
-7.840097489e-06
7.714399761e-06
7.697795577e-06
7.739431804e-06
7.854894843e-06
-7.76190685e-06
7.945955705e-06
-7.750050455e-06
7.931926055e-06
-7.603909097e-06
-7.503849757e-06
-7.501646456e-06
-7.501476344e-06
-7.501322329e-06
-7.50118154e-06
-7.501040453e-06
-7.517630876e-06
-4.551353277e-06
-2.118325241e-06
-9.623307222e-07
-4.277348914e-07
-1.863417876e-07
-7.967065695e-08
-3.346285548e-08
-1.381721306e-08
-5.611803658e-09
-2.24270326e-09
-8.821337873e-10
-3.415462337e-10
-1.301780166e-10
-4.884144427e-11
-1.803710744e-11
-6.555692022e-12
-2.344632922e-12
-8.250053032e-13
-2.855466604e-13
-9.719483248e-14
-3.252821426e-14
-1.070123494e-14
-3.459959282e-15
-1.099217591e-15
-3.430665528e-16
-1.051645777e-16
-3.165858789e-17
-9.358233965e-18
-2.715494287e-18
-7.729793196e-19
-2.154558222e-19
-5.845393824e-20
-1.516027812e-20
-3.580571601e-21
-6.847684825e-22
-8.25001235e-23
-4.315098953e-24
0.0009823976863
0.0001782774086
0.0002364738578
0.0001103998541
1.945162625e-05
1.740244622e-06
4.148618807e-06
7.734723565e-06
-7.566890765e-06
-7.544213262e-06
-7.657732899e-06
7.842835848e-06
7.819406287e-06
-7.726757647e-06
7.806336721e-06
7.738132888e-06
-7.503356535e-06
-7.501780248e-06
-7.501610121e-06
-7.501449432e-06
-7.501296618e-06
-7.501158667e-06
-7.501555405e-06
-7.590309473e-06
-3.693052579e-06
-1.715088691e-06
-7.774370763e-07
-3.447505536e-07
-1.498086361e-07
-6.38713943e-08
-2.674392865e-08
-1.100535708e-08
-4.453219823e-09
-1.772557593e-09
-6.942134671e-10
-2.675571324e-10
-1.014839248e-10
-3.788180646e-11
-1.391514098e-11
-5.029439427e-12
-1.788394443e-12
-6.255243341e-13
-2.151689818e-13
-7.277507198e-14
-2.41971654e-14
-7.907451758e-15
-2.539293453e-15
-8.011392589e-16
-2.482784991e-16
-7.556431223e-17
-2.258146973e-17
-6.62349892e-18
-1.905373412e-18
-5.36232909e-19
-1.465047757e-19
-3.805219968e-20
-8.919025493e-21
-1.674371633e-21
-1.965106284e-22
-1.012426521e-23
0.003004632742
-0.02186207523
-3.905211469e-05
0.0001936123249
4.779562264e-05
8.16776853e-06
-0.0001098990814
8.006195235e-06
-7.577153078e-06
7.779582795e-06
7.838453843e-06
-7.647964439e-06
-7.670854391e-06
7.968682389e-06
-7.772023333e-06
7.808424336e-06
-7.513548841e-06
-7.501855974e-06
-7.501743003e-06
-7.501577641e-06
-7.501416128e-06
-7.501264805e-06
-7.501129691e-06
-7.506732343e-06
-6.254116673e-06
-2.968596865e-06
-1.371917263e-06
-6.19029917e-07
-2.732932183e-07
-1.182405102e-07
-5.01920846e-08
-2.092286285e-08
-8.570683344e-09
-3.45172097e-09
-1.36721959e-09
-5.327562969e-10
-2.042532981e-10
-7.705244597e-11
-2.86007896e-11
-1.044521971e-11
-3.752839732e-12
-1.326311715e-12
-4.610030595e-13
-1.575640125e-13
-5.294484963e-14
-1.748721298e-14
-5.67629364e-15
-1.810396312e-15
-5.672360262e-16
-1.745618972e-16
-5.274966721e-17
-1.564397899e-17
-4.548053478e-18
-1.291895075e-18
-3.552304495e-19
-9.234476756e-20
-2.147706803e-20
-3.960837921e-21
-4.534670349e-22
-2.304164803e-23
-0.03298478383
-0.002552804333
-0.001889135493
0.0006146835982
0.0001423047361
2.356671909e-05
1.702841465e-06
5.100624678e-06
-7.558379106e-06
7.737606625e-06
7.700221375e-06
7.743126967e-06
7.868656287e-06
-7.791690077e-06
7.966477598e-06
-7.657932052e-06
7.841908389e-06
-7.608447652e-06
-7.501804325e-06
-7.501710299e-06
-7.501541691e-06
-7.501379488e-06
-7.501230447e-06
-7.501087555e-06
-7.514671799e-06
-5.001582155e-06
-2.358284433e-06
-1.083135714e-06
-4.858725664e-07
-2.133007979e-07
-9.177887831e-08
-3.874852718e-08
-1.606539893e-08
-6.545215876e-09
-2.621530859e-09
-1.032594745e-09
-4.000798358e-10
-1.524976895e-10
-5.718794667e-11
-2.109928468e-11
-7.6582218e-12
-2.734275512e-12
-9.601833927e-13
-3.315868958e-13
-1.125897785e-13
-3.758221054e-14
-1.233016429e-14
-3.975376823e-15
-1.259294717e-15
-3.918557249e-16
-1.19737731e-16
-3.590356156e-17
-1.05475999e-17
-3.023047745e-18
-8.361157406e-19
-2.174229658e-19
-5.017292603e-20
-9.097551564e-21
-1.017594508e-21
-5.107233034e-23
-0.003397019896
-0.003318936027
-0.002164600077
0.002421541959
0.0004751978472
6.413578334e-05
5.903911879e-06
2.19771575e-05
7.795868481e-06
7.759356712e-06
-7.606386016e-06
-7.549759908e-06
-7.676695701e-06
7.869584424e-06
7.828191025e-06
-7.632605279e-06
7.705146004e-06
7.842919621e-06
-7.59794129e-06
-7.501830323e-06
-7.501674492e-06
-7.501503219e-06
-7.501341644e-06
-7.501195334e-06
-7.501059096e-06
-7.522100356e-06
-3.926976296e-06
-1.839873668e-06
-8.399891644e-07
-3.746284801e-07
-1.635314179e-07
-6.996752309e-08
-2.937317826e-08
-1.210914936e-08
-4.905093423e-09
-1.953201193e-09
-7.648090259e-10
-2.945508009e-10
-1.115900582e-10
-4.158858651e-11
-1.524773198e-11
-5.499161869e-12
-1.950782024e-12
-6.80596859e-13
-2.334956024e-13
-7.876025594e-14
-2.611575903e-14
-8.511151329e-15
-2.725712848e-15
-8.575911934e-16
-2.649644419e-16
-8.031771283e-17
-2.383761545e-17
-6.890874724e-18
-1.915919529e-18
-4.98071736e-19
-1.140232734e-19
-2.034155653e-20
-2.225979766e-21
-1.105109474e-22
-0.002274440032
-0.00162976476
0.02172237264
0.005614220587
0.001537626431
0.000202411622
1.973996303e-05
1.550652354e-05
7.247377812e-06
-7.575164828e-06
-7.582445887e-06
7.824091998e-06
7.860442542e-06
-7.678507329e-06
-7.684418491e-06
7.872580181e-06
-7.668550855e-06
7.923454474e-06
-7.614638999e-06
-7.501901794e-06
-7.501807592e-06
-7.501629751e-06
-7.501458444e-06
-7.501299749e-06
-7.501159487e-06
-7.506474076e-06
-6.268220289e-06
-3.006401099e-06
-1.401516602e-06