/*--------------------------------*- C++ -*----------------------------------*\
  =========                 |
  \\      /  F ield         | OpenFOAM: The Open Source CFD Toolbox
   \\    /   O peration     | Website:  https://openfoam.org
    \\  /    A nd           | Version:  10
     \\/     M anipulation  |
\*---------------------------------------------------------------------------*/
FoamFile
{
    format      ascii;
    class       volScalarField;
    location    "0.02498436188";
    object      ddt0(rho,C2H6);
}
// * * * * * * * * * * * * * * * * * * * * * * * * * * * * * * * * * * * * * //

dimensions      [1 -3 -1 0 0 0 0];

internalField   nonuniform List<scalar> 
5170
(
-2.303251532e-08
-2.345760289e-08
-2.323168604e-08
-2.226576429e-08
-3.019376143e-10
-2.740858183e-08
-2.724335514e-08
-2.711050264e-08
-2.62875066e-08
-2.223488608e-08
-2.703185592e-08
-2.682919206e-08
-2.685484863e-08
-2.719751139e-08
-2.520564657e-08
-2.241842945e-08
-2.227478557e-08
-2.236376257e-08
-2.314231974e-08
-2.434480189e-08
-1.704187017e-08
-1.694432211e-08
-1.710381214e-08
-1.770424416e-08
-1.940003552e-08
-1.244338928e-08
-1.214065983e-08
-1.205208831e-08
-1.306484982e-08
-1.396682846e-08
-9.594345617e-09
-9.193401278e-09
-8.841812027e-09
-9.514689136e-09
-9.780675117e-09
-8.270589197e-09
-8.085940845e-09
-7.802980985e-09
-7.34163996e-09
-7.282435096e-09
-8.434359711e-09
-7.991979992e-09
-7.546364336e-09
-7.027605037e-09
-6.603347296e-09
-9.594342535e-09
-8.972132845e-09
-7.534467289e-09
-8.00929869e-09
-7.451669922e-09
-1.069167189e-08
-1.031834341e-08
-9.308177168e-09
-9.11031741e-09
-8.595389553e-09
-1.153370803e-08
-1.130347686e-08
-1.169410524e-08
-1.016123777e-08
-9.478591576e-09
-1.255990953e-08
-1.221030518e-08
-1.263754789e-08
-1.134534519e-08
-1.028874921e-08
-1.336575771e-08
-1.278525694e-08
-1.252451792e-08
-1.211152937e-08
-1.068211802e-08
-1.35098671e-08
-1.294472661e-08
-1.217508922e-08
-1.222102898e-08
-1.049086464e-08
-1.301809623e-08
-1.270761608e-08
-1.184491344e-08
-1.164067677e-08
-1.001178774e-08
-1.222609786e-08
-1.199577206e-08
-1.157388649e-08
-1.070150663e-08
-9.330968598e-09
-1.124688732e-08
-1.098408951e-08
-1.11212698e-08
-1.000081382e-08
-8.543714559e-09
-1.051847492e-08
-1.025974204e-08
-9.959127635e-09
-1.025067815e-08
-6.310766876e-09
-1.032541971e-08
-5.251807229e-09
3.085159987e-08
8.69014003e-08
8.543847376e-07
-1.356677458e-25
1.492287489e-25
1.841851697e-25
1.740760051e-25
1.734090379e-25
-1.930890837e-26
5.35078487e-27
1.16904674e-26
-2.856944294e-26
-1.409911565e-25
1.028162372e-23
-2.35877123e-23
1.598611901e-23
-1.871912864e-23
6.119635417e-23
-4.867206325e-20
1.354675447e-21
-2.817498436e-21
8.2628564e-21
-8.857675125e-19
3.667526227e-17
6.986491447e-19
5.156613623e-19
-3.59098003e-19
-1.090591964e-16
1.143413743e-13
4.590294711e-17
2.679196941e-17
3.925681714e-16
2.347508944e-14
-2.500551273e-13
-2.10256217e-13
1.430353115e-13
-1.799610807e-13
-5.364105106e-13
-5.507086466e-13
-9.370363533e-14
-2.703997661e-14
-5.905103039e-13
1.155353983e-14
-2.822948797e-13
-6.030720415e-13
1.586741789e-12
1.012447937e-12
1.692376451e-12
1.758758156e-12
2.086700849e-12
6.731733974e-13
-6.707946681e-13
-3.512848754e-11
-1.559709963e-11
-2.119748083e-12
-3.726218192e-11
-4.54247321e-11
5.929436163e-15
-7.194377145e-12
-6.813871195e-12
-3.525349041e-11
-4.867586536e-12
5.650762697e-12
-3.606845148e-11
-5.484405899e-11
-4.126692076e-11
-9.106120818e-11
-1.574030333e-11
-3.486782109e-11
4.394989492e-11
7.783797245e-10
-1.590599061e-14
-9.595867329e-12
1.29701679e-10
-9.906691426e-09
7.010196774e-11
2.933300803e-08
-6.518594444e-11
-1.169075293e-10
3.507416323e-08
7.351357107e-08
9.278816613e-09
-2.865004004e-10
1.457906645e-08
3.106049808e-08
8.238260455e-09
-1.377397891e-09
4.446265391e-10
-4.968825262e-08
3.252086754e-08
6.956290113e-08
3.632020665e-08
-8.664518188e-09
2.672094088e-06
1.580858863e-06
-2.17365458e-07
1.817652696e-08
-4.627682972e-09
4.313186229e-06
-4.913671493e-07
-2.40213782e-06
-6.982138934e-07
1.928536935e-08
-6.686687165e-08
5.490931573e-08
4.087816482e-07
3.902620228e-05
0.003855359004
-4.324477478e-07
-3.898919712e-06
8.594716318e-06
0.0001370916253
-0.0007580619112
2.065663584e-07
-2.89183356e-06
4.412341105e-05
0.0002461455431
-0.000202549976
7.195561575e-06
8.07890479e-05
0.0005546751644
0.001808335285
0.001053031983
3.167279277e-06
8.199811519e-05
0.0005603026531
0.001804305733
0.002980520201
-3.144308198e-05
-0.0001664230483
-0.0003614580858
0.0007427030785
0.001700102612
-2.406935204e-05
-0.0001947070775
-0.000285321067
-0.0005295188431
0.0007404718483
6.142380312e-05
0.000117853679
-1.334028419e-06
-0.0003073463241
-0.0004339957218
0.0001576144879
0.0002939986884
0.0002124296274
0.00022702937
-0.0004679106171
-8.655036488e-05
-6.71439325e-06
4.905205986e-06
-0.0004016854587
-0.0002398347638
-0.0004318757892
-0.0009566155655
-0.001102070308
-0.0007784028677
-0.0001645308595
-0.003139327393
-0.002538617836
-0.002036581248
-0.001760928559
-0.0009780980791
-0.001838074002
-0.001489034599
-0.001302648926
-0.001312487089
-0.001441385467
-0.0001738131274
-0.0002243139127
0.0001571160569
9.479332539e-05
-0.0005278742596
0.00143089419
0.0009841741837
0.001042836402
0.0003303654574
-0.0003724177032
0.001601487787
0.001176840934
0.001127850668
0.0008862784342
0.0004087923141
-0.0007946961257
-0.0009706967275
-0.0006489830731
-0.00136639678
-0.00332274388
-0.001273807375
-0.00172943935
-0.002577421011
-0.00439798059
-0.009723370103
-0.003406267529
-0.00364502989
-0.005086934985
-0.005947164008
-0.009010002823
-0.005148132506
-0.004850804353
-0.005401364595
-0.00621775853
-0.00829479256
-0.003078426359
-0.00173724316
0.00115682142
0.004814301553
0.0075963223
0.007724733528
0.009461855371
0.01331206121
0.01768762446
0.02207668832
0.01871370967
0.01999077749
0.02199906427
0.02466980998
0.02763703628
0.02500344881
0.02556982499
0.02644010808
0.02767847771
0.02863029255
0.02742096867
0.0276859944
0.02784840081
0.02801933125
0.0285898796
0.02696366324
0.02696614692
0.02702524731
0.02692666838
0.02695870032
0.02542525925
0.02547892659
0.02539258036
0.02523112473
0.02525159089
0.02362878486
0.02342045848
0.02342172212
0.02325266454
0.02299825693
0.02148507266
0.02134765704
0.02131129566
0.02112818726
0.02084821929
0.01930869079
0.01930628644
0.01918935237
0.01900630656
0.01881473783
0.01728662442
0.01720060442
0.01712075206
0.01693489945
0.01675541048
0.01518888236
0.01515262732
0.01504431359
0.01490869416
0.01465154025
0.01312091393
0.01305297089
0.01296880482
0.01285075658
0.01263991999
0.01096418649
0.01092652648
0.01086487493
0.01075051324
0.01057992857
0.00882119933
0.008794645978
0.008737507555
0.008649092148
0.008534706961
0.006771328686
0.00674877786
0.006704831891
0.006645807265
0.006549223193
0.004935972172
0.004924902604
0.004894046767
0.004848913126
0.004786767376
0.003420936136
0.003414356966
0.003393704539
0.003365022922
0.003321603136
0.002259996034
0.002251993691
0.002240750839
0.002223331087
0.002198986018
0.001422430197
0.00142084069
0.001414349879
0.001402520168
0.001389378776
0.0008618325102
0.0008607587656
0.0008569958243
0.0008510015114
0.0008431544078
0.0005060046055
0.0005051442099
0.0005032105659
0.000500344079
0.0004957417604
0.0002909297707
0.0002909599148
0.0002899506918
0.0002884184535
0.000285972714
0.0001671334186
0.0001670496153
0.0001665985368
0.0001658876078
0.000164529256
9.75643516e-05
9.764750721e-05
9.741237208e-05
9.701010975e-05
9.645787674e-05
5.920463853e-05
5.915424484e-05
5.905333268e-05
5.887561196e-05
5.868090955e-05
3.765528065e-05
3.77034239e-05
3.76456722e-05
3.754056032e-05
3.740564843e-05
2.529122634e-05
2.532811036e-05
2.530533935e-05
2.523536538e-05
2.510042817e-05
1.780546543e-05
1.784847767e-05
1.782182651e-05
1.779547898e-05
1.764230221e-05
1.302032454e-05
1.303387496e-05
1.302662132e-05
1.29874962e-05
1.294838562e-05
9.743708512e-06
9.720498406e-06
9.72653885e-06
9.713447832e-06
9.700390664e-06
7.420992057e-06
7.402798425e-06
7.389546891e-06
7.395185942e-06
7.460008442e-06
5.608721837e-06
5.672693003e-06
5.681287815e-06
5.630522229e-06
5.697389575e-06
4.317592685e-06
4.297697292e-06
4.301676562e-06
4.3066482e-06
4.245339286e-06
3.158844224e-06
3.224444089e-06
3.187173829e-06
3.209533323e-06
3.197631854e-06
2.227365304e-06
2.269912105e-06
2.262584498e-06
2.259199127e-06
2.263306334e-06
1.421893497e-06
1.404800351e-06
1.414094023e-06
1.407776419e-06
1.49730396e-06
6.379703861e-07
6.293512507e-07
6.388791733e-07
6.419237408e-07
7.254962851e-07
-2.39688839e-08
-2.549890349e-08
-1.700903347e-08
-2.792506694e-09
7.496233298e-08
-4.623840366e-07
-4.521351829e-07
-4.406933782e-07
-4.290751852e-07
-3.573646474e-07
-5.465900301e-07
-5.398674831e-07
-5.273429044e-07
-5.149721298e-07
-4.526165792e-07
-2.700728778e-07
-2.707046959e-07
-2.661061022e-07
-2.507954159e-07
-1.938084261e-07
2.748718107e-07
2.751670144e-07
2.777122536e-07
2.897142773e-07
3.664393558e-07
8.869390725e-07
8.954314035e-07
8.991339892e-07
8.939145341e-07
9.511662168e-07
1.405767304e-06
1.395812875e-06
1.406548296e-06
1.401398194e-06
1.415185435e-06
1.653004392e-06
1.660615579e-06
1.658855854e-06
1.657346407e-06
1.66459736e-06
1.617404485e-06
1.615513239e-06
1.611082137e-06
1.611261223e-06
1.612764214e-06
1.453108576e-06
1.459544553e-06
1.460124898e-06
1.465001015e-06
1.457769635e-06
1.051011806e-06
1.052715994e-06
1.051996386e-06
1.056931093e-06
1.059141102e-06
8.213383062e-07
8.249196174e-07
8.270432409e-07
8.301250699e-07
8.336290405e-07
-0.01005749807
0.01130338631
0.005883489852
0.009083522349
0.002714757587
0.00253014627
0.0005303460703
-0.0007303569964
-0.001252167534
0.0003718836614
-4.590118231e-05
-0.000708713136
0.0005173160252
-0.000349515897
0.001902951501
-0.003347181184
-0.001038489424
-0.01036300472
-0.01497003916
-0.01218035317
0.008442102046
0.02423477384
0.02885171462
0.03007459029
0.02731890274
0.02664166227
0.02450343707
0.02298197223
0.02085542822
0.01850179866
0.0164429219
0.01469241518
0.01260766741
0.01056991665
0.008446022717
0.006508233551
0.004750110563
0.003306603632
0.002176769308
0.001378468027
0.0008389510022
0.0004950204747
0.0002865427934
0.0001654040794
9.656554353e-05
5.824848558e-05
3.730092151e-05
2.533798283e-05
1.807461117e-05
1.306719992e-05
9.655318699e-06
7.079251213e-06
5.495652262e-06
4.489001484e-06
3.198217272e-06
2.291521491e-06
1.193400885e-06
4.601232591e-07
-1.511881341e-07
-5.15834639e-07
-5.678036923e-07
-3.035678424e-07
1.489795366e-07
7.828725615e-07
1.389418183e-06
1.645197884e-06
1.583139156e-06
1.479987974e-06
1.07656922e-06
8.578739472e-07
0.01107123406
-0.0004273470269
5.863540448e-06
-2.709431284e-07
1.016653299e-08
-9.999267189e-05
-0.005299099544
-0.000117639041
-1.564315823e-05
-1.538866237e-07
0.0006587437757
-0.00282384689
0.01071603641
0.000103618294
2.504390568e-06
0.01019762336
0.07261345599
0.00448527091
0.0001246684498
-2.130707035e-06
0.002461555949
-0.01219624963
0.03930708099
0.0005415224198
-3.333340226e-05
0.001449661563
0.01317822265
0.004161891115
-8.273997439e-05
-5.832000111e-06
3.029532331e-05
0.003342007343
0.02445430969
0.001378197491
-0.0001103129083
0.001878427986
-0.004700820653
-0.1088857717
-0.003373381675
0.0002137813938
-0.00298305341
-0.006937425622
-0.009735971696
-0.01369752464
-0.001168106883
0.0008201326062
0.004446377463
0.06432970275
-0.005507171589
-3.772288018e-06
0.0004758284544
0.001623995479
-0.04942588842
0.02333219766
1.321595979e-07
-9.639649735e-05
0.0003953330154
0.001686955451
-0.008852250055
0.001314247365
-0.001246220445
-0.0262809496
-0.002274443792
0.0001023746518
0.0002640491609
-0.0007591902264
0.004335450437
-0.001566363412
-0.00321375351
-0.000904300345
-0.0008383260564
0.005303811044
-0.001804973984
-0.003985765932
0.001357014689
-0.002174733464
0.002931683234
-0.009596887974
-0.00308929374
-0.007053935142
-0.001948929005
0.003673657893
0.004856007827
0.000518777682
-0.004158249973
-0.008919138302
-0.008797234805
-0.001011974278
0.02431064833
0.02808136768
-0.0224567624
-0.02959375676
-0.01647191195
0.03033649454
0.004443525499
-0.01842789942
-0.03050432115
-0.05996578488
-0.09894224317
-0.400581929
0.005850901903
0.001784186168
-0.0005022679151
-0.008718473278
-0.05113632909
0.02566146907
0.02566025434
0.02384575817
0.01944374268
0.007909201508
0.03126700101
0.03233119148
0.03051529572
0.02576461542
0.01881169308
0.03030272469
0.03050553458
0.02918727725
0.02642096454
0.02277220427
0.02861819919
0.02819672897
0.02713302856
0.02539392297
0.02322053092
0.0267383951
0.02620404706
0.02529092046
0.02399515253
0.02240077624
0.02483809234
0.02424956115
0.02343734352
0.02231733382
0.02096929796
0.02267148086
0.0221530502
0.02136799002
0.02036914948
0.01916275254
0.020507301
0.01998795384
0.01925192668
0.01832103935
0.01724283589
0.01840436827
0.01788055259
0.01718339741
0.01633455262
0.01536323043
0.0163560226
0.01586022612
0.01522071381
0.01445863561
0.01359735415
0.01434014178
0.01391453
0.01334777452
0.01267552327
0.01192746211
0.0123642738
0.01199167775
0.01150469817
0.01092648237
0.01028634943
0.01035565774
0.0100544765
0.009644410823
0.009165253834
0.008625262013
0.008353425501
0.008111429646
0.007788233363
0.007399163479
0.006963696278
0.006427714007
0.00625405236
0.006008142061
0.005710982799
0.005373567892
0.004707408301
0.004587957214
0.004414297728
0.004197231277
0.003951259742
0.0032771069
0.003202200141
0.003085279384
0.002937193598
0.002766237962
0.002174246961
0.002129278993
0.002055098308
0.001959436219
0.001847158332
0.001377937209
0.001353221892
0.001309015513
0.001250096811
0.001180408151
0.0008391211772
0.0008264189385
0.0008014676312
0.0007668896203
0.000725696968
0.0004950361212
0.0004890066757
0.0004754347643
0.0004561306509
0.0004327589743
0.0002863715126
0.0002836773308
0.0002765366975
0.0002661664429
0.0002533355562
0.0001651160961
0.0001639593231
0.0001603007881
0.0001548134105
0.000147977979
9.681605903e-05
9.626668377e-05
9.43924232e-05
9.151896083e-05
8.789198949e-05
5.883116406e-05
5.853853676e-05
5.754031616e-05
5.603428898e-05
5.407287776e-05
3.751007652e-05
3.736625171e-05
3.680645687e-05
3.599397204e-05
3.490441735e-05
2.519589803e-05
2.512913211e-05
2.48087179e-05
2.434396931e-05
2.371199214e-05
1.774042749e-05
1.771583653e-05
1.752748932e-05
1.723818694e-05
1.686800825e-05
1.298068641e-05
1.295289567e-05
1.284502217e-05
1.26491304e-05
1.242326899e-05
9.704755561e-06
9.683915735e-06
9.606495054e-06
9.489064827e-06
9.335391433e-06
7.419586074e-06
7.382432728e-06
7.332798933e-06
7.255637816e-06
7.149918544e-06
5.673440248e-06
5.657456055e-06
5.622469419e-06
5.575399948e-06
5.498884137e-06
4.294543423e-06
4.311018621e-06
4.293449252e-06
4.257376773e-06
4.212700412e-06
3.216438842e-06
3.223304793e-06
3.214353885e-06
3.198003946e-06
3.168754967e-06
2.284258781e-06
2.302251305e-06
2.304511222e-06
2.303585022e-06
2.293083844e-06
1.477817581e-06
1.481088061e-06
1.502704931e-06
1.516029517e-06
1.52751883e-06
7.242863328e-07
7.451843639e-07
7.835576444e-07
8.171765075e-07
8.520785796e-07
9.1496204e-08
1.297964568e-07
1.848708519e-07
2.401852528e-07
2.961787134e-07
-3.276728474e-07
-2.732217192e-07
-1.970438164e-07
-1.268195004e-07
-4.766442397e-08
-4.137045799e-07
-3.586553282e-07
-2.951716904e-07
-2.159660009e-07
-1.307556388e-07
-1.671107882e-07
-1.247612433e-07
-5.786284861e-08
1.078445932e-08
9.094934295e-08
3.656359857e-07
3.732507548e-07
4.10379694e-07
4.655270029e-07
5.260036157e-07
9.345123274e-07
9.400099415e-07
9.669473254e-07
1.000101983e-06
1.03878007e-06
1.410991451e-06
1.414909169e-06
1.425669335e-06
1.439746203e-06
1.45542692e-06
1.657173182e-06
1.653137917e-06
1.651547131e-06
1.645403959e-06
1.631182953e-06
1.59261895e-06
1.593721539e-06
1.733949246e-06
1.712383297e-06
1.710497494e-06
1.492893947e-06
1.511075984e-06
1.382762761e-06
1.396057563e-06
1.39955755e-06
1.073316835e-06
1.091129781e-06
1.110226122e-06
1.126138319e-06
1.139277789e-06
8.670093917e-07
8.795452091e-07
8.15123427e-07
9.168784115e-07
9.224846513e-07
-3.469211512e-08
-4.588984278e-07
-6.572257663e-08
-1.030751036e-08
-2.895840107e-09
-1.566941105e-09
-1.337616557e-09
-1.352717001e-09
-1.389183619e-09
-1.414983166e-09
-1.42481608e-09
-1.427870062e-09
-1.427931141e-09
-1.42564519e-09
-1.423523461e-09
-1.421830361e-09
-1.420951224e-09
-1.420920145e-09
-1.421002512e-09
-1.421020706e-09
-1.420877803e-09
-1.420690807e-09
-1.420567437e-09
-1.420526497e-09
-1.420615843e-09
-1.420763649e-09
-1.420961531e-09
-1.421199522e-09
-1.421466603e-09
-1.421757372e-09
-1.422056866e-09
-1.422372155e-09
-1.422744559e-09
-1.423164115e-09
-1.423600018e-09
-1.4240273e-09
-1.424475523e-09
-1.424946557e-09
-1.425432245e-09
-1.425932496e-09
-1.426452822e-09
-1.426965746e-09
-1.427499357e-09
-1.428013984e-09
-1.428513173e-09
-1.429002481e-09
-1.429486734e-09
-1.429945751e-09
-1.430361798e-09
-1.430758956e-09
-1.431118378e-09
-1.431436186e-09
-1.431713962e-09
-1.431980821e-09
-1.432407111e-09
-1.433914637e-09
-1.439817336e-09
-1.457225842e-09
-1.493850018e-09
-1.546652308e-09
-2.859578483e-07
-2.73893485e-06
-1.154047285e-07
-6.647292613e-09
-1.413647911e-09
-1.156728119e-09
-1.362552718e-09
-1.518240385e-09
-1.657209748e-09
-1.748254394e-09
-1.8016021e-09
-1.827530948e-09
-1.83844019e-09
-1.842269024e-09
-1.842631961e-09
-1.839695065e-09
-1.840783618e-09
-1.846905957e-09
-1.851588042e-09
-1.854142523e-09
-1.855360824e-09
-1.856094468e-09
-1.856421178e-09
-1.856662513e-09
-1.857186832e-09
-1.857798433e-09
-1.858468407e-09
-1.859363437e-09
-1.860240725e-09
-1.861331398e-09
-1.862409861e-09
-1.863611471e-09
-1.865112948e-09
-1.866765439e-09
-1.868195134e-09
-1.86938363e-09
-1.871045094e-09
-1.872861393e-09
-1.874411837e-09
-1.875873716e-09
-1.877718475e-09
-1.87920649e-09
-1.880890004e-09
-1.882350909e-09
-1.884173336e-09
-1.885838357e-09
-1.887254446e-09
-1.888654062e-09
-1.889580089e-09
-1.890758038e-09
-1.891744125e-09
-1.892579011e-09
-1.893304083e-09
-1.894112694e-09
-1.895254918e-09
-1.899419892e-09
-1.914116627e-09
-1.963790199e-09
-2.089156496e-09
-2.230695195e-09
-1.020803343e-06
-4.470376673e-06
-3.915462745e-07
-2.943778068e-08
-3.612760275e-09
-9.239174078e-11
6.896976135e-10
7.250352438e-10
4.741958102e-10
1.770359986e-10
-5.919448961e-11
-2.019726703e-10
-2.80042156e-10
-3.154727735e-10
-3.293784616e-10
-3.312249253e-10
-3.383603755e-10
-3.558155869e-10
-3.689647222e-10
-3.776268061e-10
-3.831911946e-10
-3.870475962e-10
-3.904631254e-10
-3.939032382e-10
-3.975615659e-10
-4.012460188e-10
-4.048474197e-10
-4.085092151e-10
-4.11993324e-10
-4.15411335e-10
-4.188554671e-10
-4.2225314e-10
-4.256353276e-10
-4.288791756e-10
-4.320235155e-10
-4.352724378e-10
-4.385036784e-10
-4.415950375e-10
-4.445928353e-10
-4.476177316e-10
-4.505711885e-10
-4.533683704e-10
-4.562250314e-10
-4.588095357e-10
-4.614977005e-10
-4.640000462e-10
-4.66362734e-10
-4.684789077e-10
-4.701497005e-10
-4.719443197e-10
-4.735542879e-10
-4.748367247e-10
-4.760118851e-10
-4.771056832e-10
-4.785059494e-10
-4.823926331e-10
-4.942678712e-10
-5.272334926e-10
-5.840720719e-10
-6.160387937e-10
-2.421503703e-06
-1.959935543e-05
-5.968354003e-06
-4.223408479e-07
-5.280884951e-08
-8.95696702e-09
2.410723386e-09
5.433854089e-09
5.476038461e-09
4.514784656e-09
3.531888008e-09
2.839128759e-09
2.442955841e-09
2.252296683e-09
2.171014929e-09
2.14142989e-09
2.118393022e-09
2.089012044e-09
2.067932813e-09
2.053467052e-09
2.043215112e-09
2.034955057e-09
2.02725398e-09
2.019836789e-09
2.012744844e-09
2.006081143e-09
1.999834272e-09
1.993950001e-09
1.988409597e-09
1.98319588e-09
1.978279877e-09
1.973642087e-09
1.969254769e-09
1.965125142e-09
1.961247083e-09
1.957513447e-09
1.95393452e-09
1.950507235e-09
1.947208878e-09
1.94393985e-09
1.940794913e-09
1.937896458e-09
1.935054487e-09
1.932409209e-09
1.929830929e-09
1.927464374e-09
1.92523139e-09
1.923257053e-09
1.921478841e-09
1.919875807e-09
1.918450115e-09
1.91734626e-09
1.916375309e-09
1.915677163e-09
1.914902173e-09
1.914281087e-09
1.914403484e-09
1.924072861e-09
1.975196727e-09
2.055551983e-09
-3.401549356e-06
-3.113027252e-05
-4.769478662e-05
-5.953331248e-06
-4.937516399e-07
-6.906904686e-08
1.882494075e-09
1.742024953e-08
1.779552268e-08
1.395577176e-08
9.981865788e-09
7.165635221e-09
5.54508543e-09
4.748304543e-09
4.413436971e-09
4.292424783e-09
4.240025094e-09
4.204292241e-09
4.183899237e-09
4.170969321e-09
4.16196871e-09
4.154351727e-09
4.147021834e-09
4.13985947e-09
4.133123004e-09
4.126889969e-09
4.121182068e-09
4.115929397e-09
4.111116528e-09
4.106747439e-09
4.10272212e-09
4.099075926e-09
4.095779011e-09
4.092788868e-09
4.090076171e-09
4.087604866e-09
4.085312345e-09
4.083135727e-09
4.081045386e-09
4.0789944e-09
4.077036455e-09
4.075194457e-09
4.073394584e-09
4.071715379e-09
4.070085821e-09
4.068594765e-09
4.067122657e-09
4.065780694e-09
4.064511397e-09
4.063453775e-09
4.062496007e-09
4.061816197e-09
4.061230627e-09
4.061006824e-09
4.061143667e-09
4.063439721e-09
4.072511229e-09
4.106004856e-09
4.196478422e-09
4.299266126e-09
-1.919251157e-06
-2.724105107e-05
-9.618609143e-05
-4.553410376e-05
-3.15345027e-06
-1.493670758e-07
4.851026291e-08
6.48818304e-08
5.393583841e-08
3.745908264e-08
2.359096045e-08
1.447329291e-08
9.433935639e-09
7.032717891e-09
6.037239862e-09
5.682152303e-09
5.561986897e-09
5.513458132e-09
5.493909402e-09
5.485246097e-09
5.480266435e-09
5.476055277e-09
5.471683534e-09
5.467254345e-09
5.462919636e-09
5.458913647e-09
5.455405521e-09
5.452323723e-09
5.449581422e-09
5.447304446e-09
5.445343308e-09
5.443704136e-09
5.442356078e-09
5.441283539e-09
5.44043597e-09
5.439751947e-09
5.439220076e-09
5.438745236e-09
5.438339096e-09
5.437939052e-09
5.437537535e-09
5.437130778e-09
5.436685724e-09
5.436209817e-09
5.435689049e-09
5.435147204e-09
5.434539098e-09
5.433924171e-09
5.433269902e-09
5.432650935e-09
5.432048285e-09
5.431649925e-09
5.431228551e-09
5.431174932e-09
5.431690672e-09
5.434583353e-09
5.444753902e-09
5.47639269e-09
5.547508698e-09
5.61855157e-09
-9.663114516e-06
-1.333031179e-05
-9.481022719e-05
-0.0001458509396
-2.903425098e-05
-8.07278368e-07
1.448801646e-07
1.648554925e-07
1.27855245e-07
8.463118867e-08
5.010719256e-08
2.783306676e-08
1.56079234e-08
9.805662083e-09
7.403303237e-09
6.530668463e-09
6.246535147e-09
6.157983636e-09
6.132229552e-09
6.12508186e-09
6.12395799e-09
6.123032638e-09
6.121519484e-09
6.119734585e-09
6.117904251e-09
6.116124501e-09
6.114524246e-09
6.113270318e-09
6.112438594e-09
6.111843408e-09
6.11158972e-09
6.111609444e-09
6.111847429e-09
6.112292276e-09
6.11297059e-09
6.113671067e-09
6.114575092e-09
6.115450644e-09
6.116340442e-09
6.117213992e-09
6.117998803e-09
6.118721536e-09
6.119316676e-09
6.119758644e-09
6.120039929e-09
6.120219676e-09
6.120197861e-09
6.120070878e-09
6.119800596e-09
6.119414276e-09
6.118990196e-09
6.118539973e-09
6.118085196e-09
6.117849875e-09
6.118127838e-09
6.11999317e-09
6.127007633e-09
6.146629411e-09
6.185578936e-09
6.221779894e-09
1.592298917e-05
-4.698760787e-06
-7.221337627e-05
-0.0001848174705
-0.0001433254524
-5.725345756e-06
9.684713203e-07
4.844930394e-07
3.019080056e-07
1.875487462e-07
1.061544337e-07
5.505741091e-08
2.743325414e-08
1.446641714e-08
9.152333658e-09
7.239604446e-09
6.621025428e-09
6.438840092e-09
6.392439541e-09
6.383158644e-09
6.381782396e-09
6.384464283e-09
6.384247322e-09
6.383449438e-09
6.38340368e-09
6.382883599e-09
6.382540612e-09
6.382219538e-09
6.382343493e-09
6.38268231e-09
6.383297728e-09
6.384205907e-09
6.385302175e-09
6.386557746e-09
6.387968185e-09
6.389793328e-09
6.391303468e-09
6.393232164e-09
6.394821571e-09
6.39658517e-09
6.398117101e-09
6.399714567e-09
6.400927638e-09
6.402005275e-09
6.402950004e-09
6.403490366e-09
6.403836002e-09
6.404059198e-09
6.404158285e-09
6.403752691e-09
6.403081112e-09
6.402685666e-09
6.402061584e-09
6.401555381e-09
6.401355586e-09
6.40224949e-09
6.40582603e-09
6.415243449e-09
6.432495157e-09
6.447858361e-09
-5.151063724e-05
-4.034896785e-06
-5.593393058e-05
-0.000194384271
-0.0003094814249
-5.924940619e-05
6.642980558e-06
1.810718987e-06
7.778115797e-07
4.254484711e-07
2.271091698e-07
1.108878005e-07
5.049971718e-08
2.305424194e-08
1.206494739e-08
8.170362617e-09
6.937774518e-09
6.585510807e-09
6.490996284e-09
6.470836065e-09
6.470460529e-09
6.472931116e-09
6.474385304e-09
6.47615487e-09
6.474786714e-09
6.474960239e-09
6.474756931e-09
6.474757567e-09
6.475134803e-09
6.475622619e-09
6.476132782e-09
6.477621755e-09
6.479080481e-09
6.480419163e-09
6.482232729e-09
6.484667088e-09
6.486748295e-09
6.488604424e-09
6.491467032e-09
6.493137392e-09
6.495717701e-09
6.497124816e-09
6.499926091e-09
6.500873207e-09
6.502144193e-09
6.503142945e-09
6.503738352e-09
6.504043721e-09
6.504127996e-09
6.503894069e-09
6.503435916e-09
6.502813042e-09
6.502070608e-09
6.50138104e-09
6.500891012e-09
6.500997746e-09
6.502395728e-09
6.506334132e-09
6.513337899e-09
6.519517696e-09
6.289006931e-05
1.484666466e-06
-2.957070767e-05
-0.0002043739302
-0.0004287484235
-0.0002748155136
3.475922585e-05
7.425120262e-06
2.027574737e-06
9.366876139e-07
4.652722968e-07
2.155198435e-07
9.192686972e-08
3.782378212e-08
1.688027521e-08
9.631127401e-09
7.354013838e-09
6.712545927e-09
6.543694475e-09
6.502813008e-09
6.497419988e-09
6.499541178e-09
6.501395123e-09
6.50237452e-09
6.502738172e-09
6.502671668e-09
6.502353078e-09
6.502156988e-09
6.502258205e-09
6.502626346e-09
6.503227194e-09
6.504179504e-09
6.505468538e-09
6.507062255e-09
6.508993958e-09
6.511256436e-09
6.51370057e-09
6.516291154e-09
6.518966214e-09
6.521595971e-09
6.523988455e-09
6.526554776e-09
6.528648504e-09
6.530452395e-09
6.531998636e-09
6.533227042e-09
6.534116912e-09
6.534663838e-09
6.534868226e-09
6.534730569e-09
6.534303245e-09
6.533649319e-09
6.532861202e-09
6.532049573e-09
6.531364368e-09
6.531052087e-09
6.531458809e-09
6.533121834e-09
6.536227736e-09
6.538982776e-09
-3.373690624e-05
0.0008724298701
-2.964671674e-05
-0.0002065767197
-0.0005262459019
-0.00069038187
7.048006858e-05
2.87344257e-05
5.260807786e-06
2.063804729e-06
9.316903562e-07
4.019546266e-07
1.602775964e-07
6.073776963e-08
2.405885337e-08
1.176211189e-08
7.959938051e-09
6.885547423e-09
6.595113818e-09
6.522181377e-09
6.507295884e-09
6.507652961e-09
6.50975273e-09
6.510732798e-09
6.510902265e-09
6.510608766e-09
6.510061393e-09
6.509506071e-09
6.509182621e-09
6.509146048e-09
6.509405257e-09
6.510041605e-09
6.511132665e-09
6.512653494e-09
6.514550015e-09
6.516780223e-09
6.519291914e-09
6.522019992e-09
6.524860423e-09
6.527713117e-09
6.530486871e-09
6.533146836e-09
6.535575802e-09
6.537720194e-09
6.539538085e-09
6.541029736e-09
6.542161284e-09
6.542895067e-09
6.543236905e-09
6.543196604e-09
6.542821536e-09
6.542179859e-09
6.541357578e-09
6.540475267e-09
6.539682882e-09
6.539179175e-09
6.539203815e-09
6.540071704e-09
6.541841715e-09
6.543347154e-09
0.006525118128
0.0002563303746
-1.103913404e-05
-0.000205188045
-0.0006902541882
-0.001203567764
-0.0001344393175
0.0001333232302
2.187265432e-05
5.705118493e-06
2.035888451e-06
7.633555201e-07
2.748427395e-07
9.54112329e-08
3.418454128e-08
1.469133442e-08
8.80471529e-09
7.129629562e-09
6.666512037e-09
6.543822852e-09
6.517950098e-09
6.513734546e-09
6.513986331e-09
6.5151249e-09
6.514973567e-09
6.514109331e-09
6.513203543e-09
6.512277162e-09
6.511459169e-09
6.510948044e-09
6.510807424e-09
6.511067282e-09
6.511803016e-09
6.513042002e-09
6.514737193e-09
6.51682852e-09
6.51926412e-09
6.521976629e-09
6.524879007e-09
6.527863212e-09
6.530817398e-09
6.53366531e-09
6.536338126e-09
6.538743764e-09
6.540803657e-09
6.542511456e-09
6.543835407e-09
6.544732058e-09
6.54520565e-09
6.545264156e-09
6.54494796e-09
6.544329607e-09
6.543499043e-09
6.542581664e-09
6.541736366e-09
6.54115176e-09
6.541040357e-09
6.541642886e-09
6.542913341e-09
6.543874612e-09
0.0001881183975
3.025577245e-06
-1.240962328e-05
-0.0001545272575
-0.0009173450884
-0.001841523031
-0.0008070368759
0.0004448858635
6.206818391e-05
1.525964639e-05
4.380110906e-06
1.373790385e-06
4.354886603e-07
1.379006429e-07
4.583843289e-08
1.809647281e-08
9.834066093e-09
7.452716818e-09
6.762856491e-09
6.574505394e-09
6.528861772e-09
6.521001601e-09
6.519371232e-09
6.518956875e-09
6.518413548e-09
6.517424762e-09
6.516192628e-09
6.514797873e-09
6.513471337e-09
6.512462487e-09
6.511840912e-09
6.511644871e-09
6.511943922e-09
6.512781475e-09
6.514148076e-09
6.515991787e-09
6.518250442e-09
6.520851774e-09
6.52371136e-09
6.526728878e-09
6.529780209e-09
6.532758351e-09
6.535590099e-09
6.538186428e-09
6.540443017e-09
6.542325439e-09
6.543811937e-09
6.544855524e-09
6.545448798e-09
6.545600068e-09
6.545346461e-09
6.544759724e-09
6.543939127e-09
6.54301435e-09
6.542149612e-09
6.541535396e-09
6.541376995e-09
6.54187321e-09
6.54288321e-09
6.543526888e-09
-0.0001215627623
-1.524416012e-05
-0.0008801317639
-9.128377037e-05
-0.001288653554
-0.002777763956
-0.002042101032
0.0007845469943
0.0002460947945
4.298703875e-05
9.346364124e-06
2.406458988e-06
6.605126633e-07
1.886995424e-07
5.860181876e-08
2.183695246e-08
1.103307861e-08
7.848847763e-09
6.889076173e-09
6.613356412e-09
6.543697961e-09
6.52725163e-09
6.52447862e-09
6.523628573e-09
6.522568723e-09
6.521316885e-09
6.519729642e-09
6.517881548e-09
6.516069597e-09
6.514519907e-09
6.513363464e-09
6.512682087e-09
6.512523764e-09
6.512919844e-09
6.513883727e-09
6.515397191e-09
6.51740313e-09
6.51982176e-09
6.522562843e-09
6.525526882e-09
6.528593799e-09
6.531637936e-09
6.534561594e-09
6.537279945e-09
6.539686565e-09
6.541707212e-09
6.543322693e-09
6.544489207e-09
6.545183033e-09
6.545418132e-09
6.545226205e-09
6.544680028e-09
6.543884269e-09
6.542973104e-09
6.542114232e-09
6.541499286e-09
6.541328047e-09
6.541761217e-09
6.542572603e-09
6.542914622e-09
-0.0003826517431
-9.928866364e-05
-2.027638811e-05
-0.0001415711491
-0.002204762999
-0.004393302988
-0.003494627169
0.000865528054
0.0006457016861
0.0001271690711
2.098767643e-05
4.079005385e-06
9.232274786e-07
2.356413776e-07
6.955333857e-08
2.524213428e-08
1.221310465e-08
8.271332804e-09
7.037607893e-09
6.666541593e-09
6.562134359e-09
6.535295329e-09
6.529925369e-09
6.528735204e-09
6.527409671e-09
6.525475162e-09
6.523251285e-09
6.521038861e-09
6.518948903e-09
6.51700176e-09