/*--------------------------------*- C++ -*----------------------------------*\
  =========                 |
  \\      /  F ield         | OpenFOAM: The Open Source CFD Toolbox
   \\    /   O peration     | Website:  https://openfoam.org
    \\  /    A nd           | Version:  10
     \\/     M anipulation  |
\*---------------------------------------------------------------------------*/
FoamFile
{
    format      ascii;
    class       volScalarField;
    location    "0.02498436188";
    object      ddt0(rho,CH2);
}
// * * * * * * * * * * * * * * * * * * * * * * * * * * * * * * * * * * * * * //

dimensions      [1 -3 -1 0 0 0 0];

internalField   nonuniform List<scalar> 
5170
(
-1.208947466e-10
-1.207011055e-10
-1.203547674e-10
-1.227466319e-10
8.482480663e-13
-9.99543498e-11
-9.947564096e-11
-9.917775409e-11
-9.698125203e-11
-1.185869466e-10
-1.058141857e-10
-1.055011291e-10
-1.052052463e-10
-1.049419836e-10
-9.831034586e-11
-1.065784321e-10
-1.062715579e-10
-1.059851221e-10
-1.057820587e-10
-1.047252384e-10
-1.069737561e-10
-1.066674439e-10
-1.06452382e-10
-1.063885731e-10
-1.058479776e-10
-1.072657421e-10
-1.069850779e-10
-1.068118444e-10
-1.068541226e-10
-1.06542626e-10
-1.07385387e-10
-1.071062332e-10
-1.0695387e-10
-1.070556377e-10
-1.069416665e-10
-1.073924871e-10
-1.070987372e-10
-1.069859637e-10
-1.071307847e-10
-1.071081787e-10
-1.07365594e-10
-1.070924651e-10
-1.070325521e-10
-1.07172908e-10
-1.071768469e-10
-1.073477326e-10
-1.070982433e-10
-1.070567086e-10
-1.071917696e-10
-1.072164923e-10
-1.073483073e-10
-1.071136513e-10
-1.070752165e-10
-1.072121225e-10
-1.072505963e-10
-1.073331972e-10
-1.071151835e-10
-1.070915681e-10
-1.072281729e-10
-1.072810768e-10
-1.07304605e-10
-1.071114699e-10
-1.071077344e-10
-1.072428708e-10
-1.07309349e-10
-1.073460332e-10
-1.071479333e-10
-1.071350558e-10
-1.07259777e-10
-1.073357715e-10
-1.073066835e-10
-1.071326671e-10
-1.07148413e-10
-1.072977981e-10
-1.074684973e-10
-1.073309519e-10
-1.071802099e-10
-1.072513053e-10
-1.075306563e-10
-1.080071736e-10
-1.074793451e-10
-1.073745972e-10
-1.075401931e-10
-1.080379881e-10
-1.088040619e-10
-1.079674841e-10
-1.078896926e-10
-1.081285e-10
-1.086673002e-10
-1.091294336e-10
-1.086501977e-10
-1.086006273e-10
-1.085233923e-10
-1.018276333e-10
-8.780789438e-11
-1.086677092e-10
-7.199096476e-11
8.595011216e-11
4.412420971e-13
3.549437343e-11
-1.841692324e-16
1.682692547e-16
2.000752872e-16
1.993837687e-16
2.019426473e-16
-1.907205943e-16
2.598952031e-16
-3.359042574e-17
-1.021985946e-16
-8.164779723e-17
-1.737410118e-16
-5.285284331e-17
8.522067796e-17
-1.843554785e-17
7.248731827e-18
2.645229857e-16
-6.785750074e-17
-1.240714868e-16
5.898878874e-17
-4.124364484e-15
3.959981732e-13
-5.942811896e-15
2.319980848e-15
-3.406104594e-14
3.202999753e-12
-7.740170435e-11
-1.141994645e-12
7.842439724e-13
-2.637244781e-12
-5.262938566e-11
-9.120048997e-11
-1.498004664e-12
-5.421773218e-11
2.198572305e-09
-1.305774365e-07
-1.075227079e-08
-8.760504084e-10
-1.694857428e-10
-1.081314463e-08
7.791770447e-08
-7.851570942e-08
-9.688706184e-09
-1.717327146e-08
-1.091412079e-07
2.734934053e-07
2.138557079e-07
-3.487057496e-07
8.673649986e-08
-1.460203295e-07
1.34259807e-08
1.745079857e-08
-1.271910919e-07
-1.268428625e-07
-1.613683638e-08
2.995865076e-10
-1.096004218e-09
3.488245472e-08
7.191650235e-08
2.173864001e-08
1.35679997e-08
1.608938458e-08
3.391236037e-09
1.457128993e-08
4.565464089e-09
5.73963951e-09
1.213364435e-08
-7.904125882e-10
4.797701176e-09
1.473952769e-08
5.818140137e-10
4.653574963e-09
1.519308317e-08
1.566076515e-08
4.260971779e-09
1.456346667e-08
1.035234197e-08
3.798341619e-09
4.649782459e-09
7.800159314e-09
2.953582093e-08
1.869492928e-08
-2.652989459e-09
-3.392289789e-09
2.061368153e-08
-9.051334357e-08
3.00514379e-08
1.742370753e-08
1.696122294e-08
2.968884965e-08
-4.369274144e-07
-9.805702589e-08
2.324056719e-08
2.738886388e-08
-1.011493402e-07
-4.402208496e-07
3.07218275e-08
-9.426367853e-08
-3.102845731e-08
4.369123062e-08
-5.196847952e-09
-1.482527046e-10
9.896413484e-11
-8.930644777e-11
7.239991246e-08
1.481473523e-07
-1.344798475e-11
-1.918005976e-10
-1.113391335e-10
-1.025357903e-08
-1.756700962e-08
-9.017174227e-12
-2.948932291e-11
-6.475016166e-09
-1.073770979e-09
-9.677858133e-09
2.330364887e-11
2.416733663e-11
2.471315712e-09
1.235531535e-08
2.075725714e-07
-2.832952523e-11
8.332033364e-11
3.110083519e-09
-5.349148885e-10
-6.326453729e-07
-6.262267432e-11
-1.945947088e-10
-1.408163367e-09
9.669068394e-09
6.950782021e-07
-7.886477986e-11
-2.525379419e-10
-4.240032643e-09
-7.641361993e-08
-3.061001885e-07
3.450012172e-10
6.732970217e-09
6.339157567e-09
7.770661748e-08
3.65538972e-07
8.419293148e-11
5.624749809e-09
-9.134414757e-10
2.151926486e-08
1.870974727e-07
-3.13549642e-11
9.662017189e-10
-2.663711832e-09
-2.891564627e-08
-1.20818807e-07
4.318502847e-11
-7.175330653e-11
-2.284077494e-09
-2.21163005e-08
-1.890752994e-07
-7.047277074e-11
-3.132987516e-10
-1.367950066e-09
-5.67397739e-09
-3.379237101e-08
1.602634936e-09
1.285515299e-10
4.177992752e-10
-7.441534347e-09
-5.466532464e-08
-1.183216502e-10
5.141111484e-10
4.155124389e-09
1.841659447e-08
3.1156591e-08
-9.54246087e-11
1.986609243e-09
1.195185389e-08
1.551876616e-08
-4.27985435e-07
3.73738166e-11
-3.447343885e-10
-1.253311074e-10
1.069145882e-08
1.476443119e-07
2.619047744e-09
-4.269754294e-09
-2.609073861e-07
7.522720845e-08
6.384935714e-07
-5.574714578e-10
6.739171188e-09
-6.740108962e-08
6.362124941e-07
6.757627322e-06
2.17772782e-07
4.153255244e-08
-2.279941521e-07
-1.543389116e-06
-3.020376484e-06
1.975819281e-08
3.821925485e-08
1.349433922e-07
3.192417401e-07
1.467822875e-06
2.79231009e-08
5.864748475e-08
1.614805793e-07
4.270878793e-07
1.15414158e-06
3.19423365e-08
5.462095764e-08
1.20644291e-07
2.692965036e-07
5.799521032e-07
1.876816361e-08
2.945873621e-08
5.342224239e-08
1.033273448e-07
1.954285062e-07
-3.377831878e-10
9.707526745e-09
2.445363777e-08
2.880364652e-08
4.671593102e-08
1.606350692e-09
1.790867957e-09
2.649711222e-09
7.38227126e-09
7.894821093e-09
5.68116462e-10
6.822705977e-10
7.737094276e-10
1.358620304e-10
9.82087418e-10
5.106270296e-11
6.486184698e-11
1.345015901e-10
1.131339298e-10
1.516709107e-10
1.528239226e-11
1.793160554e-11
1.844938956e-11
2.158708722e-11
1.715012579e-11
4.821457444e-12
3.839669026e-12
4.072930781e-12
8.593882358e-13
5.780070026e-13
1.090067016e-12
1.158927506e-12
1.166144411e-12
9.665910582e-13
6.08405448e-13
-3.571496607e-13
-3.416770282e-13
-1.29568115e-13
6.737103715e-13
1.426476795e-13
-2.319976193e-14
-1.991442285e-14
-1.138599641e-14
1.746671651e-14
2.004469318e-14
2.176123346e-15
1.567490052e-15
-1.613249077e-15
-1.928405405e-15
-5.978663453e-16
-8.05843993e-15
-8.092744659e-15
-8.108779636e-15
-7.895427733e-15
-7.656013099e-15
-3.402106469e-14
-3.43698489e-14
-3.426262924e-14
-3.362282992e-14
-3.300440177e-14
-9.19886462e-14
-9.285471015e-14
-9.375764558e-14
-9.541258264e-14
-8.973712931e-14
-6.442432374e-15
-4.840410539e-15
1.000204448e-14
1.066266481e-14
5.823214916e-15
1.661109716e-14
1.690267621e-14
1.9747861e-14
3.670516653e-14
3.780989034e-14
1.426937733e-14
1.401053601e-14
1.480950297e-14
1.454638183e-14
3.467395632e-14
1.67761366e-14
4.047268908e-14
4.107783944e-14
-4.352166774e-14
-4.415311505e-14
1.079767222e-14
1.084952285e-14
1.05389042e-14
5.43230986e-15
-3.249612919e-16
-4.609438091e-15
-4.716323055e-15
3.424053518e-14
6.260176995e-14
3.319841226e-14
8.649434267e-15
2.965399482e-15
7.874564057e-15
9.441010407e-15
-4.958307271e-15
4.723711093e-15
4.324665261e-15
3.684914169e-15
4.694210523e-17
-5.817981128e-16
-9.603302905e-15
-1.868755161e-14
2.266923022e-14
3.165735884e-14
-5.144398922e-14
-6.482530656e-14
-5.974870725e-14
-5.202778601e-14
-2.833144453e-14
-1.817409023e-15
-8.639158464e-15
-1.449062944e-14
-7.630193567e-15
-1.747807461e-14
-1.315606972e-13
3.396110577e-14
2.886807652e-14
-1.878801014e-15
-4.681442895e-15
-3.830582531e-15
-4.663737557e-16
-5.447267308e-17
1.150442662e-16
-8.832469364e-16
7.331570895e-16
2.362524957e-16
-6.005039097e-16
-2.8219525e-16
4.4646195e-16
1.324289451e-16
-5.700552945e-15
-5.707051117e-15
-5.890851862e-15
-6.11223795e-15
-6.421936323e-15
4.329438793e-16
4.100308231e-17
6.084245093e-17
6.720089059e-16
4.160540442e-15
6.755320926e-15
6.745785962e-15
6.750078955e-15
6.76053452e-15
7.168193538e-15
8.155702995e-15
8.043410164e-15
7.785053886e-15
7.308062206e-15
6.844789125e-15
6.848683745e-16
7.306602004e-16
8.462864006e-16
9.506683815e-16
9.536847284e-16
-4.156093419e-15
-4.136709275e-15
-4.100522562e-15
-3.974916008e-15
-3.825662552e-15
1.01728443e-14
1.033097811e-14
1.051088933e-14
1.064572488e-14
9.713696788e-15
9.964320413e-15
9.57583098e-15
9.27212345e-15
9.407802731e-15
9.736268327e-15
1.056449489e-14
1.088888858e-14
1.027621063e-14
1.003158922e-14
9.610670874e-15
8.061284249e-15
8.470667032e-15
9.068970994e-15
1.043994357e-14
9.842461749e-15
-1.704032262e-14
-1.670119752e-14
-1.60547813e-14
-1.462856482e-14
-1.441827261e-14
-7.500653755e-14
-7.553240404e-14
-7.576595937e-14
-7.447132872e-14
-6.71988005e-14
-3.213130463e-14
-3.02320595e-14
-2.806080526e-14
2.388640269e-14
1.92488252e-14
3.326951221e-14
3.683346838e-14
4.13804565e-14
4.400372953e-14
3.191768024e-14
3.525764919e-14
3.907323866e-14
4.381424539e-14
4.704624501e-14
3.583134691e-14
4.747093864e-14
5.093731215e-14
5.456145809e-14
5.518849082e-14
3.901060629e-14
-5.514527498e-14
-5.05370041e-14
-4.702914484e-14
-3.551906023e-14
-4.417294073e-14
-4.573331625e-13
-4.587162047e-13
-4.567520992e-13
-4.490398974e-13
-4.195224258e-13
-1.068513298e-13
-1.044108835e-13
-9.654149689e-14
-7.83955365e-14
-6.522468063e-14
-1.037518037e-13
-9.64571631e-14
-7.9203225e-14
-5.386429245e-14
-3.762769005e-14
1.553347597e-06
3.273358341e-07
6.576829512e-08
1.912352082e-06
-5.247183257e-06
2.730729473e-06
1.032599745e-06
1.665349251e-06
2.156712818e-07
1.083293516e-06
-5.454420732e-07
-1.226951148e-07
1.3880237e-07
-1.047185028e-07
-3.917783353e-06
1.125210781e-06
-1.48929252e-06
2.032844941e-06
-2.571115145e-06
5.273965595e-06
2.529165974e-06
9.93936465e-07
3.022048058e-07
6.872876398e-08
9.630846003e-09
1.554321037e-09
1.758510286e-10
1.707231475e-11
-7.752714982e-12
2.065899951e-13
7.791512691e-14
2.563978935e-14
-3.751071657e-15
-8.857952046e-15
-2.861828624e-14
-9.816507186e-14
2.662086801e-15
2.620278502e-14
5.487997021e-14
-1.254517233e-14
3.69448333e-15
2.904347408e-14
1.551843417e-14
1.438548219e-14
-6.81279777e-14
-1.513307367e-14
-5.300631783e-14
-4.846009416e-15
-2.123222815e-15
-1.451187219e-15
-7.33518946e-15
5.845733667e-15
7.477417847e-15
7.08353109e-15
2.255098732e-16
-4.656516929e-15
7.391355629e-15
8.246431641e-15
7.950634268e-15
8.214967631e-15
-2.080226076e-14
-5.176935883e-14
1.860772249e-14
7.233986532e-15
1.206913476e-14
9.812237763e-15
-3.095054467e-14
-4.173879113e-13
-1.123601451e-13
-9.465775725e-14
-6.593257182e-07
-3.586268812e-08
-6.884885404e-09
-9.996620989e-09
-7.187852929e-10
-1.394162432e-07
-8.22317964e-06
7.939642075e-08
7.138300031e-11
-2.829871162e-10
1.803001621e-07
6.447577484e-07
1.241494531e-06
7.562310963e-09
3.283560778e-08
4.688572566e-06
-0.0001661975034
0.0001306486862
8.523935802e-07
2.074754119e-07
-2.244735553e-06
-1.535626317e-05
-0.0003001457933
-2.483164832e-05
-4.691239158e-08
-4.502000411e-07
-3.897978973e-06
-8.493250656e-05
-9.193061025e-06
-9.66886749e-07
4.399333097e-06
2.286080647e-05
-5.368644601e-05
1.990495878e-05
1.327804897e-06
2.310207884e-06
1.127915807e-05
0.0001596430927
0.000261102701
2.968518694e-05
-1.380196899e-06
-2.376216262e-05
-0.0001670154548
-0.0004160800407
-0.0001559250507
3.374626395e-07
1.646359429e-05
0.000106429403
-0.0006261874935
0.0001083871101
-2.215334423e-07
3.468227887e-06
3.329171915e-05
-0.0006494034502
1.79799407e-05
3.085771707e-07
-2.798334019e-07
8.64927448e-06
0.0001250886141
0.0009614121914
1.737779729e-06
3.600144007e-05
2.729978328e-06
2.96979337e-05
-9.999992289e-05
-7.298853387e-07
-6.151931004e-06
6.295973905e-07
6.052098925e-06
2.353836541e-05
-2.349845771e-07
-6.27658943e-06
9.456879349e-07
3.19785441e-06
0.0008417048071
5.472280025e-06
-6.673245314e-06
8.475359359e-05
6.957917447e-06
0.0009767718071
-6.813432088e-06
-1.734786511e-05
-9.643788004e-05
-2.986657719e-06
0.0006473848379
-2.261478966e-06
-9.614967961e-06
-4.217431649e-05
-0.0001738679704
-0.0006810912738
-5.252292315e-06
-2.33125923e-05
-0.0001115159483
-0.0004818181293
-0.002297181626
1.716280849e-05
0.0001281727084
0.0008334674423
0.00486581025
0.02083102606
5.758248011e-06
2.865063835e-05
0.0001433129833
0.0006489447599
0.002020094669
1.735885623e-06
5.029346679e-06
1.659416823e-05
5.899191982e-05
0.000153426625
4.908815289e-07
1.034190147e-06
2.139167338e-06
4.824881517e-06
9.573103308e-06
1.089807111e-07
1.99429266e-07
3.207461253e-07
4.79389611e-07
6.335042717e-07
2.58128642e-08
3.157544965e-08
4.461445168e-08
5.478296535e-08
5.462809638e-08
2.210895855e-09
3.535169232e-09
4.664323539e-09
5.31428254e-09
4.892141353e-09
2.649119839e-10
3.56014093e-10
4.89882703e-10
4.916413655e-10
4.221869236e-10
2.979143068e-11
4.293527342e-11
8.480168298e-11
5.879324482e-11
3.730723908e-11
-3.972340262e-11
5.743400031e-13
7.395971004e-12
3.712512787e-12
-2.14823061e-12
-1.113231102e-12
-9.470800067e-13
3.373633249e-13
3.043692575e-13
6.194329498e-13
3.215350913e-14
-3.051690401e-14
-1.950449741e-13
2.483534438e-14
3.834672334e-14
1.59072586e-14
2.328184708e-14
1.858659836e-14
2.572481793e-14
-1.784650105e-16
1.642282708e-15
4.050333839e-16
1.145775416e-14
3.890136315e-15
-6.895075834e-14
1.356186664e-15
2.245228202e-15
-2.25941961e-15
-1.028862285e-14
-4.475218359e-14
-3.926923859e-14
-4.737201423e-14
-3.288617549e-14
-1.620832556e-13
-6.17322725e-14
-1.545148956e-13
1.208113681e-14
1.615225463e-14
-1.287095014e-13
-1.446969423e-13
5.508302647e-15
-1.868470884e-14
4.568362835e-14
-1.65564264e-14
-8.221374789e-14
3.340566592e-14
-1.027450645e-13
6.648016028e-14
7.754310039e-14
-4.180668275e-14
-3.184760313e-14
-2.896428303e-14
8.589248771e-14
9.243428445e-14
-2.495843568e-14
6.653509043e-14
4.435379598e-14
4.526023432e-14
-8.614502778e-14
-2.586361183e-13
1.114658521e-15
7.504089821e-14
-1.39179787e-13
-2.868206145e-15
4.974726226e-14
-1.396239744e-13
6.245325335e-15
-1.374144488e-16
-5.981775631e-15
1.770519317e-14
-1.016286171e-15
-1.107409991e-15
-1.712836804e-15
1.699876337e-14
-3.97938823e-14
1.635407149e-14
-2.07569936e-14
2.928885151e-14
-1.783139146e-15
1.827396312e-14
-5.283002509e-14
3.367160735e-14
-7.336653256e-15
7.472477104e-14
-1.236352568e-13
2.017528545e-14
8.425715927e-15
-5.650974781e-14
-1.02292225e-13
3.520338507e-14
4.692156755e-14
2.560328565e-13
-5.143995159e-14
-1.171957928e-14
1.464342143e-15
-7.653980061e-15
-7.136090412e-15
-2.112209859e-15
-6.130566888e-16
1.296089624e-15
1.917702902e-16
9.173992381e-16
2.346885593e-15
-1.349071136e-15
-4.862413973e-15
-4.619981008e-15
-4.223605502e-15
-1.434062388e-15
-7.472498589e-16
-2.570679387e-17
4.300647987e-15
6.228570268e-15
6.605304402e-15
6.888977359e-15
6.315093578e-15
6.112611504e-15
7.403221566e-15
8.011542865e-15
7.557226177e-15
4.783153067e-15
8.047583816e-15
8.651564027e-15
8.081638735e-15
6.738953833e-15
-1.242310939e-15
4.98331958e-15
1.258721266e-15
1.834093962e-16
1.373005415e-15
-3.079802858e-15
7.551712712e-16
-3.234295284e-15
-4.295216445e-15
-5.830020733e-15
1.106876792e-14
-5.014534479e-15
1.194136846e-14
1.120410607e-14
1.097187745e-14
1.084819071e-14
1.100060725e-14
1.117819441e-14
1.07931231e-14
1.071943746e-14
1.06891447e-14
1.120288785e-14
1.288504293e-14
1.195811048e-14
1.261974835e-14
1.088628541e-14
1.161479505e-14
1.27047972e-14
1.021916258e-14
6.643673724e-15
1.502405789e-15
1.321125179e-14
1.379242318e-14
7.032177901e-15
-4.358675348e-15
1.054943308e-14
-3.580278659e-15
2.206805084e-15
-5.205026465e-14
-3.70589504e-14
-2.203311239e-14
-5.658548559e-14
-3.643963086e-14
-2.1789238e-14
5.838296357e-15
3.115181476e-14
9.539219788e-14
-2.104479577e-14
8.626115144e-14
1.143662716e-13
7.571293319e-14
6.604989546e-14
7.833260819e-14
8.641252809e-14
1.055219278e-13
6.786956985e-14
7.282235159e-14
8.774508369e-14
9.235636038e-14
9.331183673e-14
9.173565674e-14
6.125709313e-14
6.01976475e-14
5.567687671e-14
5.713707001e-14
5.270155687e-14
-3.039302723e-14
-5.743483733e-14
-4.340757429e-13
-3.580319577e-13
-3.632460313e-13
-4.889883394e-13
-5.461747264e-13
1.400099496e-15
-2.125292408e-14
7.835908057e-15
-7.542795757e-14
-5.924322711e-14
4.627993927e-14
1.199226283e-13
1.790925212e-13
-1.772001045e-13
-1.374825439e-13
1.852943625e-13
-6.502000056e-13
-5.372408209e-13
-1.370949801e-11
-1.315563571e-12
-8.170312814e-13
-1.911081002e-13
2.107974396e-13
-6.550609107e-14
5.374956235e-13
3.578939011e-13
3.340873691e-13
3.194557535e-13
3.061224271e-13
2.938007801e-13
2.815350548e-13
2.623867633e-13
2.245253293e-13
6.282698636e-13
6.349629764e-13
1.893767995e-13
2.168942966e-13
2.151157148e-13
2.051114838e-13
1.944105513e-13
1.839386029e-13
1.740940911e-13
1.649066732e-13
1.566113607e-13
1.493863888e-13
1.433621853e-13
1.420131062e-13
1.395884345e-13
1.357251718e-13
1.30799974e-13
1.25234352e-13
1.19560844e-13
1.151861319e-13
1.120037729e-13
1.087717438e-13
1.053216201e-13
1.016243506e-13
9.768529069e-14
9.357184609e-14
9.02877295e-14
8.997097305e-14
9.062793149e-14
9.203358591e-14
9.402852634e-14
9.658975262e-14
9.95645719e-14
1.027836461e-13
1.060932259e-13
1.093717761e-13
1.125502098e-13
1.15491163e-13
1.181164576e-13
1.204125983e-13
1.228869397e-13
1.305594236e-13
1.764033649e-13
3.977902812e-13
6.400614304e-13
-2.234133677e-11
-3.613700555e-11
1.924261737e-12
2.231792119e-13
2.049037631e-13
3.40570862e-13
3.527763122e-13
3.586525386e-13
3.620334009e-13
3.646904906e-13
3.660208817e-13
3.63554955e-13
3.616320802e-13
3.573644896e-13
3.536116704e-13
3.402555708e-13
3.375921766e-13
3.536181551e-13
3.600935354e-13
3.624590307e-13
3.612131791e-13
3.591351842e-13
3.570216913e-13
3.545647845e-13
3.530421999e-13
3.514873819e-13
3.504389859e-13
3.500161096e-13
3.496986071e-13
3.499923263e-13
3.504094293e-13
3.508897488e-13
3.515390553e-13
3.523379845e-13
3.529162645e-13
3.535217195e-13
3.541704793e-13
3.545311652e-13
3.547490887e-13
3.54865913e-13
3.547938014e-13
3.545453072e-13
3.541594418e-13
3.53627255e-13
3.530236878e-13
3.522757871e-13
3.515040277e-13
3.506996897e-13
3.498879897e-13
3.490794009e-13
3.4829859e-13
3.475378672e-13
3.467846629e-13
3.460686735e-13
3.453695364e-13
3.447650644e-13
3.446558784e-13
3.490572978e-13
3.701210341e-13
3.506226857e-13
2.494464636e-10
-4.995383658e-10
2.509302401e-13
-1.123410019e-13
3.479586032e-13
2.456723574e-14
1.528393567e-13
1.984175672e-13
2.307158703e-13
2.663685905e-13
3.028225795e-13
3.375274617e-13
3.688225143e-13
3.525831915e-13
3.389215318e-13
-7.986542308e-15
1.126061998e-13
3.48000569e-13
3.503449004e-13
3.494791928e-13
3.508471169e-13
3.528000733e-13
3.549319422e-13
3.572007701e-13
3.593545169e-13
3.613945874e-13
3.631679491e-13
3.645831171e-13
3.656780777e-13
3.664020647e-13
3.668565198e-13
3.670832472e-13
3.671606565e-13
3.671397743e-13
3.670834002e-13
3.670420314e-13
3.670363097e-13
3.670948813e-13
3.672212168e-13
3.674159942e-13
3.676771169e-13
3.680016074e-13
3.68385766e-13
3.688262043e-13
3.693149736e-13
3.698529611e-13
3.704164309e-13
3.710029429e-13
3.715972637e-13
3.721862606e-13
3.727615068e-13
3.733214911e-13
3.738624153e-13
3.743793966e-13
3.748891242e-13
3.754546224e-13
3.763021047e-13
3.774480576e-13
3.748752104e-13
3.687810988e-13
2.963085802e-09
3.135683764e-11
6.028376146e-12
-1.647070385e-12
2.502431942e-13
1.201492019e-14
-1.646664801e-13
-2.191610897e-13
-2.676052211e-13
-3.249618586e-13
-3.802003196e-13
-3.620803067e-13
-2.933668234e-13
-2.073451028e-13
-1.531439373e-13
-1.241639441e-13
-2.833149297e-13
-8.925592895e-14
-1.020472397e-13
-1.071289486e-13
-9.68672887e-14
-8.399710126e-14
-7.104431511e-14
-5.830167884e-14
-4.581715363e-14
-3.365699167e-14
-2.203988356e-14
-1.132635295e-14
-1.518524588e-15
7.254059528e-15
1.493223907e-14
2.120787935e-14
2.61385504e-14
2.980681263e-14
3.242360328e-14
3.448075779e-14
3.61441343e-14
3.761000855e-14
3.895762409e-14
4.020163037e-14
4.148302855e-14
4.271385905e-14
4.396422718e-14
4.529127259e-14
4.676334898e-14
4.852024708e-14
5.057004955e-14
5.283140084e-14
5.529580166e-14
5.791653798e-14
6.059153148e-14
6.329590301e-14
6.595982622e-14
6.856441213e-14
7.124829469e-14
7.465410894e-14
8.094624933e-14
9.349262041e-14
1.04515695e-13
1.064942007e-13
-1.021102282e-09
-3.124250402e-10
-8.87711425e-12
-7.342940723e-12
-7.712071289e-13
2.218675635e-13
1.403943464e-13
-5.662548846e-14
-1.28400694e-13
-1.850680644e-13
-2.466679212e-13
-3.129618638e-13
-3.82528866e-13
-3.73917098e-13
-3.01351942e-13
6.789661684e-14
-1.412083895e-13
-2.07323009e-13
-2.271128284e-13
-2.300547413e-13
-2.163175523e-13
-2.004466651e-13
-1.853422759e-13
-1.711596935e-13
-1.576770701e-13
-1.448605816e-13
-1.327042136e-13
-1.213143724e-13
-1.106533385e-13
-1.008005143e-13
-9.18072411e-14
-8.380080183e-14
-7.677438662e-14
-7.06765591e-14
-6.55145523e-14
-6.103851267e-14
-5.719365964e-14
-5.389134477e-14
-5.106335094e-14
-4.879673067e-14
-4.699930168e-14
-4.563985769e-14
-4.451304452e-14
-4.353822622e-14
-4.264765821e-14
-4.165750642e-14
-4.051123241e-14
-3.909364825e-14
-3.735846745e-14
-3.542407727e-14
-3.330415464e-14
-3.103331744e-14
-2.870795193e-14
-2.633306065e-14
-2.37084015e-14
-1.986244023e-14
-1.193099069e-14
4.147616643e-15
2.279952036e-14
3.283028591e-14
-7.72466653e-08
-3.291480678e-09
-4.286429225e-11
-1.732033071e-11
3.279962046e-13
2.144973742e-13
1.844458983e-13
-1.616217853e-14
-8.670637555e-14
-1.357015926e-13
-1.898816706e-13
-2.564959583e-13
-3.430635721e-13
-4.173797343e-13
-3.515884095e-13
2.086957028e-13
-2.467521573e-14
-2.437596558e-13
-2.637729763e-13
-2.645870645e-13
-2.469502144e-13
-2.274041224e-13
-2.095197176e-13
-1.93245625e-13
-1.78216338e-13
-1.642423261e-13
-1.512018109e-13
-1.390621897e-13
-1.277764762e-13
-1.173589422e-13
-1.078112107e-13
-9.914470965e-14
-9.135850445e-14
-8.441379978e-14
-7.831944479e-14
-7.297717274e-14
-6.834289313e-14
-6.43543044e-14
-6.093601275e-14
-5.807058661e-14
-5.566145254e-14
-5.367121811e-14
-5.194409366e-14
-5.038344945e-14
-4.900057635e-14
-4.780642265e-14
-4.682707908e-14
-4.575562912e-14
-4.440596534e-14
-4.286552196e-14
-4.108989515e-14
-3.912890071e-14
-3.703417312e-14
-3.475763203e-14
-3.202635356e-14
-2.758124656e-14
-1.844035363e-14
-1.731188552e-15
1.663292591e-14
2.679706982e-14
-6.751765317e-08
-1.415928343e-08
-4.724608225e-10
-3.843936142e-12
-6.808077381e-12
-7.175672663e-13
2.88824665e-13
1.872561563e-13
-1.796576094e-14
-9.836087188e-14
-1.553972503e-13
-2.234149498e-13
-3.179362464e-13
-4.176178554e-13
-3.299684753e-13
3.266402573e-13
7.482945393e-14
-2.732790652e-13
-2.942252485e-13
-2.936711153e-13
-2.718851782e-13
-2.478668577e-13
-2.264595751e-13
-2.075184282e-13
-1.904410988e-13
-1.748378346e-13
-1.604783646e-13
-1.472381522e-13
-1.350327513e-13
-1.238225666e-13
-1.135768088e-13
-1.042729593e-13
-9.589580697e-14
-8.840796166e-14
-8.178697604e-14
-7.597578316e-14
-7.092224726e-14
-6.656326682e-14
-6.282123854e-14
-5.963109325e-14
-5.690053623e-14
-5.456562455e-14
-5.252536548e-14
-5.069536026e-14
-4.903325966e-14
-4.748179604e-14
-4.606029565e-14
-4.463537674e-14
-4.313833056e-14
-4.163289548e-14
-3.9988699e-14
-3.818506908e-14
-3.621339483e-14
-3.39501256e-14
-3.100326651e-14
-2.58529126e-14
-1.57700076e-14
9.016266319e-16
1.806838411e-14
2.698280651e-14
2.540480847e-06
1.056122061e-07
-2.992150154e-10
-1.004510189e-10
1.587110143e-10
2.367821729e-12
-1.003818203e-12
3.040814874e-13
5.415107209e-14
-6.42611174e-14
-1.280593373e-13
-1.996503594e-13
-3.000917649e-13
-3.97316124e-13
-2.766153117e-13
3.160267503e-13
1.533765822e-13
-2.998882009e-13
-3.238599491e-13
-3.235613108e-13
-2.985468568e-13
-2.699125788e-13
-2.444874304e-13
-2.224221312e-13
-2.02938848e-13
-1.854360082e-13
-1.695301845e-13
-1.550033186e-13
-1.417112188e-13
-1.295729413e-13
-1.185267114e-13
-1.085270249e-13
-9.953689413e-14
-9.151074794e-14
-8.440761442e-14
-7.817081146e-14
-7.274035772e-14
-6.804751068e-14
-6.40130411e-14
-6.056006787e-14
-5.759372281e-14
-5.503714215e-14
-5.280227954e-14
-5.080781259e-14
-4.899387769e-14
-4.727668202e-14
-4.56217468e-14
-4.39850631e-14
-4.233620708e-14
-4.068330736e-14
-3.894372002e-14
-3.709146617e-14
-3.50760773e-14
-3.27083767e-14
-2.94145243e-14
-2.350717389e-14
-1.264592703e-14
3.812728257e-15
1.992979557e-14
2.742969476e-14
-1.150479355e-05
-4.44763467e-07
-1.614184748e-08
-9.287034804e-10
-4.024085521e-11
-1.501653181e-10
3.08893453e-12
3.669095187e-12
2.117987038e-13
1.224625946e-14
-9.491147237e-14
-1.763113464e-13
-2.826925185e-13
-3.755048993e-13
-2.244714381e-13
3.255628574e-13
2.18515202e-13
-3.230109851e-13
-3.509518903e-13
-3.523219698e-13
-3.256280218e-13
-2.929962255e-13
-2.635283673e-13
-2.380920583e-13
-2.159567183e-13
-1.963773989e-13
-1.787986739e-13
-1.628979783e-13
-1.484474061e-13
-1.353245203e-13
-1.234318266e-13
-1.126997401e-13
-1.030733788e-13
-9.448978171e-14
-8.689284698e-14
-8.022446999e-14
-7.441856288e-14
-6.940227512e-14
-6.508405234e-14
-6.138532062e-14
-5.819589596e-14
-5.544110917e-14
-5.303173784e-14
-5.087917486e-14
-4.892047112e-14
-4.70769716e-14
-4.529883999e-14
-4.355513631e-14
-4.177913761e-14
-3.997159073e-14
-3.811776334e-14
-3.616412767e-14
-3.40240225e-14
-3.142896805e-14
-2.76368796e-14
-2.102879387e-14
-9.619571585e-15
6.475706472e-15
2.170047113e-14
2.764008588e-14
1.007253611e-05
5.322302351e-07
-7.679340846e-08
-7.366040921e-09
-2.751776851e-10
-3.42118633e-12
-9.078438124e-12
3.402588148e-12
1.509560382e-13
7.223102972e-14
-6.317598171e-14
-1.516820276e-13
-2.624157176e-13
-3.48473132e-13
-1.691630242e-13
3.275663687e-13
2.807393743e-13
-3.450380099e-13
-3.770725712e-13
-3.805265545e-13
-3.53227934e-13
-3.171846924e-13
-2.836615178e-13
-2.545574714e-13
-2.294512037e-13
-2.07562866e-13
-1.88185312e-13
-1.708414967e-13
-1.552017538e-13
-1.410682069e-13
-1.283113891e-13
-1.168282284e-13
-1.065564347e-13
-9.740220472e-14
-8.931041815e-14
-8.221484975e-14
-7.603514693e-14
-7.070342566e-14
-6.609698134e-14
-6.215292024e-14
-5.873820183e-14
-5.578714853e-14
-5.320856897e-14
-5.08987273e-14
-4.880951638e-14
-4.684255605e-14
-4.49536757e-14
-4.311845463e-14
-4.124595527e-14
-3.932913711e-14
-3.736288415e-14
-3.528411942e-14
-3.298118639e-14
-3.012271327e-14
-2.580062334e-14
-1.853963126e-14
-6.730697352e-15
8.963234467e-15
2.341127023e-14
2.777633926e-14
1.838326689e-06
-2.149167013e-05
1.926471982e-07
-7.360181213e-09
-1.121086588e-09
-9.136005312e-12
-1.148964423e-10
4.154202614e-12
-3.630511035e-13
2.076848681e-13
3.607331201e-15
-1.247253163e-13
-2.439374149e-13
-3.208116466e-13
-1.147868412e-13
2.993672405e-13
3.187799892e-13
-3.520505536e-13
-4.02133325e-13
-4.090181999e-13
-3.819180114e-13
-3.430348386e-13
-3.055416519e-13
-2.72497182e-13
-2.440062285e-13
-2.194184114e-13
-1.979593621e-13
-1.789747349e-13
-1.620178844e-13
-1.467870245e-13
-1.331050842e-13
-1.208358138e-13
-1.098967948e-13
-1.001777011e-13
-9.163272813e-14
-8.414606269e-14
-7.761410406e-14
-7.196250957e-14
-6.706925208e-14
-6.287585693e-14
-5.924702204e-14
-5.610622792e-14
-5.335804987e-14
-5.089945451e-14
-4.869009149e-14
-4.660207271e-14
-4.460279949e-14
-4.265350861e-14
-4.068429954e-14
-3.868586682e-14
-3.662459676e-14
-3.4422135e-14
-3.19116217e-14
-2.872157501e-14
-2.38919662e-14
-1.604223511e-14
-3.949729319e-15
1.131868919e-14
2.504034672e-14
2.717849839e-14
-1.027798437e-05
-2.553462198e-07
-2.30472198e-07
-9.669866493e-08
-3.602909723e-09
7.410134201e-11
8.091396291e-12
-5.978647246e-12
8.327239829e-14
3.366153293e-13
1.463476763e-13
-8.836160577e-14
-2.328607382e-13
-3.003328872e-13
-6.956229868e-14
2.750461123e-13
3.019009423e-13
-3.17961168e-13
-4.214015544e-13
-4.357899463e-13
-4.102576093e-13
-3.695652168e-13
-3.287624726e-13
-2.919967679e-13
-2.59958089e-13
-2.323279343e-13
-2.084385848e-13
-1.87558824e-13
-1.691227423e-13
-1.527112195e-13
-1.380549797e-13
-1.249693145e-13
-1.133167465e-13
-1.029927059e-13
-9.391066904e-14
-8.595355339e-14
-7.903351025e-14
-7.304877405e-14
-6.788944872e-14
-6.344762144e-14
-5.962263642e-14
-5.631090863e-14
-5.341960398e-14
-5.084836765e-14
-4.85143608e-14
-4.632063707e-14
-4.422654676e-14
-4.217859207e-14
-4.01350153e-14
-3.80545922e-14
-3.588616835e-14
-3.35562373e-14
-3.083761872e-14
-2.726969952e-14
-2.193996477e-14
-1.357560499e-14
-1.312692912e-15
1.350637019e-14
2.654135038e-14
2.559056554e-14
1.641458988e-05
1.122719089e-06
-2.194604521e-07
-4.492664195e-07
-1.194487858e-08
6.034033405e-10
6.959806345e-11
-9.544580566e-11
2.10332262e-12
-6.377513552e-14
3.122347029e-13
-5.118055607e-14
-2.328715126e-13
-2.920439717e-13
-4.146263596e-14
2.580694071e-13
3.033133913e-13
-2.886020431e-13
-4.263565969e-13
-4.301530784e-13
-4.326026805e-13
-3.941491536e-13
-3.514652944e-13
-3.11832549e-13
-2.766109328e-13
-2.45959336e-13
-2.194733719e-13
-1.965108327e-13
-1.764445566e-13
-1.587551596e-13
-1.430751157e-13
-1.291515422e-13
-1.167955985e-13
-1.05883342e-13
-9.627825635e-14
-8.787603478e-14
-8.056823615e-14
-7.423616947e-14
-6.879166339e-14
-6.409483427e-14
-6.006932575e-14
-5.658065649e-14
-5.352836278e-14
-5.081742506e-14
-4.834164683e-14
-4.604921385e-14
-4.386003668e-14
-4.172034967e-14
-3.9599948e-14
-3.742723905e-14
-3.513961794e-14
-3.265471207e-14
-2.970474435e-14
-2.575806886e-14
-1.994224962e-14
-1.113459698e-14
1.196705795e-15
1.553878103e-14
2.789766414e-14
2.313603864e-14
6.869815579e-07
-1.058030712e-06
2.056628273e-05
-1.705945597e-06
3.268868002e-09
7.752374264e-09
5.056144485e-10
8.154899285e-11
2.690821161e-11
2.26677463e-13
-4.599593518e-14
7.694757284e-14
-2.057755949e-13
-2.932175227e-13
-3.528180687e-14
2.503073958e-13
3.013878307e-13
-2.713998485e-13
-4.101755642e-13
-4.141108807e-13
-4.321058915e-13
-4.120987147e-13
-3.707639573e-13
-3.299318569e-13
-2.926595954e-13
-2.59608773e-13
-2.307716614e-13
-2.057423179e-13
-1.83973415e-13
-1.649164971e-13
-1.481420996e-13
-1.333304441e-13
-1.202448132e-13