/*--------------------------------*- C++ -*----------------------------------*\
  =========                 |
  \\      /  F ield         | OpenFOAM: The Open Source CFD Toolbox
   \\    /   O peration     | Website:  https://openfoam.org
    \\  /    A nd           | Version:  10
     \\/     M anipulation  |
\*---------------------------------------------------------------------------*/
FoamFile
{
    format      ascii;
    class       volScalarField;
    location    "0.02498436188";
    object      ddt0(rho,CH3);
}
// * * * * * * * * * * * * * * * * * * * * * * * * * * * * * * * * * * * * * //

dimensions      [1 -3 -1 0 0 0 0];

internalField   nonuniform List<scalar> 
5170
(
-9.78879514e-07
-9.815754636e-07
-9.813024649e-07
-9.475896616e-07
-2.461602199e-08
-1.27438612e-06
-1.277250686e-06
-1.280880959e-06
-1.279041588e-06
-1.004525515e-06
-1.312379043e-06
-1.317219234e-06
-1.323230069e-06
-1.332804221e-06
-1.307226727e-06
-1.309690779e-06
-1.315727438e-06
-1.323257035e-06
-1.332775247e-06
-1.350224831e-06
-1.30053191e-06
-1.307702033e-06
-1.316971755e-06
-1.326185765e-06
-1.347733321e-06
-1.28725105e-06
-1.294569464e-06
-1.304021414e-06
-1.31625595e-06
-1.338460462e-06
-1.274560448e-06
-1.282040916e-06
-1.291161407e-06
-1.30324705e-06
-1.326843675e-06
-1.266594508e-06
-1.275450221e-06
-1.285057257e-06
-1.29245274e-06
-1.31704069e-06
-1.2661102e-06
-1.274135884e-06
-1.282760823e-06
-1.28942949e-06
-1.313912826e-06
-1.272757233e-06
-1.27996206e-06
-1.283528307e-06
-1.294103012e-06
-1.319428005e-06
-1.281896346e-06
-1.29001423e-06
-1.294749518e-06
-1.302532613e-06
-1.329493519e-06
-1.292536952e-06
-1.301046591e-06
-1.311327727e-06
-1.313472702e-06
-1.341023364e-06
-1.30498051e-06
-1.312753965e-06
-1.322982816e-06
-1.326283723e-06
-1.353065987e-06
-1.316412498e-06
-1.323007005e-06
-1.329936836e-06
-1.336917308e-06
-1.362140455e-06
-1.32315627e-06
-1.329633186e-06
-1.334084005e-06
-1.342754876e-06
-1.365804782e-06
-1.324733329e-06
-1.332189608e-06
-1.335546503e-06
-1.342218704e-06
-1.364118414e-06
-1.321959852e-06
-1.329518123e-06
-1.334026418e-06
-1.336703678e-06
-1.357505385e-06
-1.314996319e-06
-1.322036948e-06
-1.327981297e-06
-1.328123471e-06
-1.346368767e-06
-1.305952111e-06
-1.312497183e-06
-1.315348434e-06
-1.320071954e-06
-1.331773671e-06
-1.292661643e-06
-1.299383011e-06
-1.294874122e-06
-1.252055433e-06
-9.388557245e-07
-4.878814806e-16
2.49390806e-16
4.095514803e-16
4.119321661e-16
4.109702514e-16
-4.941436557e-16
8.076766106e-16
-1.749745122e-16
-8.004767589e-17
-1.163703023e-16
-5.216703088e-16
-1.679812151e-16
2.55600741e-16
2.789831562e-16
1.629088019e-16
6.358022997e-16
-8.889683653e-16
-2.739916588e-15
-1.285198001e-15
-1.276557912e-13
1.061458252e-11
4.419570312e-13
1.256252722e-13
-9.556378768e-13
9.483434849e-11
-9.895162673e-10
-6.614205241e-11
3.850051777e-11
-2.894926817e-11
-1.257921206e-09
-4.505814462e-09
7.764784858e-11
-1.388784954e-09
6.631236808e-08
-3.994655736e-06
-4.20745705e-07
-3.186005484e-08
-5.671654035e-09
-3.351781719e-07
-4.92479247e-06
6.290463924e-07
-3.608857485e-07
-4.017622776e-07
-2.276026441e-06
8.146308241e-06
6.144675869e-06
-1.053162012e-05
-5.043998971e-07
-4.513395936e-06
4.299153311e-07
6.287730127e-07
-3.71739251e-06
-3.551788963e-06
-5.668861312e-07
2.733871022e-09
-1.431154236e-07
1.131545391e-06
1.418931557e-06
9.195387736e-07
4.677209268e-07
7.335724414e-07
3.107039282e-07
5.929302163e-07
1.280695566e-07
1.763020007e-07
4.177821641e-07
-7.439499568e-08
1.182251186e-07
5.221985902e-07
-2.790903242e-08
1.227823407e-07
5.397966684e-07
5.525024211e-07
1.139530069e-07
5.127157066e-07
3.405142673e-07
9.376142917e-08
1.240392302e-07
2.480429032e-07
1.102341566e-06
6.711508991e-07
-1.612969191e-07
-1.893636693e-07
7.531576352e-07
-3.607599463e-06
1.116337831e-06
6.177670415e-07
6.007454084e-07
1.106075684e-06
-1.697024046e-05
-3.89654514e-06
8.30849539e-07
1.006311799e-06
-4.026985755e-06
-1.709703417e-05
-1.316587144e-05
-2.110199337e-06
-1.542175564e-06
1.646643695e-06
-1.982597188e-07
-1.34016414e-06
-1.228764695e-06
-5.106294455e-07
1.633668951e-05
-0.001579613631
-1.199895629e-06
-1.501232989e-06
-5.725246617e-07
2.742000168e-05
0.0003360173987
-1.302369798e-06
-1.714536216e-06
-3.24056866e-05
-2.49740654e-06
4.649149576e-05
-1.202217488e-06
1.368110094e-06
2.648499597e-05
2.593501538e-05
6.501406781e-05
-1.073225947e-06
9.554870585e-07
1.929548508e-05
2.903451449e-05
0.0001522685926
-1.420492725e-06
-2.116557122e-06
1.769002874e-06
1.96619428e-06
-3.964274124e-05
-1.324019641e-06
-2.672285917e-06
-1.535555081e-06
-1.391018503e-05
-5.617619251e-05
1.078599774e-06
3.783798997e-05
5.227418472e-07
-5.066625275e-06
-3.822727783e-05
3.368981183e-06
3.227795594e-05
4.323296609e-06
4.623566486e-06
3.006422807e-05
-9.192868932e-09
1.189294361e-05
1.770405631e-06
-9.390837609e-06
-2.243834433e-05
-2.37002714e-06
-1.252291857e-06
-8.876905294e-06
-1.842304835e-05
-3.665726967e-05
-1.13101605e-05
-1.328933838e-05
-2.088311863e-05
-3.147782678e-05
-5.007801475e-05
-6.41492758e-06
-6.60261292e-06
-7.88052611e-06
-2.99160646e-06
2.054578965e-06
6.631911867e-08
1.62689792e-06
9.729677197e-06
2.927944863e-05
7.032850273e-05
4.825029164e-06
9.635515539e-06
2.526471375e-05
4.222561609e-05
-0.0001495844371
1.691097531e-05
1.399316147e-05
2.442200655e-05
4.361747269e-05
9.092528463e-05
5.309452941e-06
5.913079244e-06
-0.0005496979784
8.454127647e-05
0.001367187041
-8.039225404e-07
3.809158294e-05
-0.0001104288029
0.0001008888523
0.002576034778
0.0003254865644
-5.727358155e-05
-0.0004170627904
-0.002405322609
-0.003764135675
-7.656734011e-05
-0.0001248265025
-0.0001607395294
-0.0002914523259
7.378138354e-05
3.633157488e-05
5.030180368e-05
0.0001181514525
0.0003395919511
0.001011218367
0.0004736413491
0.0005610633858
0.000758824985
0.001074982773
0.001585702309
0.0008758119306
0.0009577737976
0.00111331148
0.001343444774
0.001640028745
0.0007402283022
0.0008290780803
0.0009599331646
0.001000050907
0.001088202309
0.0004719021106
0.0004803744869
0.0004962751273
0.0005377128559
0.0005396076457
0.000224157531
0.0002259461468
0.0002285142436
0.0002309225902
0.0002302992209
0.0001016925968
0.0001015321717
9.962110085e-05
9.871322498e-05
9.591811833e-05
4.407197885e-05
4.317316914e-05
4.259698476e-05
4.094822536e-05
4.088161237e-05
1.921923272e-05
1.919616435e-05
1.926406594e-05
1.873057152e-05
1.607643397e-05
8.675388531e-06
8.724082044e-06
8.707458036e-06
8.44212013e-06
7.890188474e-06
2.112955568e-06
2.073360685e-06
2.55930592e-06
3.995445225e-06
2.968008636e-06
1.250754331e-06
1.245988978e-06
1.223202581e-06
1.265473905e-06
1.202423435e-06
4.828918375e-07
4.619106458e-07
3.571181799e-07
3.024347205e-07
2.926378562e-07
7.581542541e-08
7.172565029e-08
6.142308442e-08
4.695452888e-08
2.780674752e-08
-1.251108491e-07
-1.286765465e-07
-1.233994821e-07
-1.341170163e-07
-1.547296834e-07
-1.992044545e-07
-2.034332078e-07
-2.120891418e-07
-2.240265561e-07
-2.419116084e-07
-1.466970618e-07
-1.518781688e-07
-1.775846078e-07
-1.89949529e-07
-1.964857193e-07
-2.265965196e-08
-2.540378203e-08
-3.398510753e-08
-6.196626046e-08
-7.722434714e-08
1.033545102e-07
1.014210881e-07
9.846655405e-08
1.039804111e-07
8.906055988e-08
2.076523455e-07
2.076321394e-07
2.025735834e-07
2.036419373e-07
2.054263647e-07
2.486795887e-07
2.496485091e-07
2.516125951e-07
2.544076151e-07
2.580060588e-07
2.000303833e-07
2.025573069e-07
2.070630747e-07
2.131095871e-07
2.089273101e-07
4.031282211e-08
6.561278027e-08
8.542580311e-08
9.257328453e-08
1.417671109e-07
-1.152353631e-08
3.205215754e-08
-1.087616974e-08
-3.580974729e-08
4.939395831e-08
-9.084086677e-09
8.375501356e-08
-6.947418492e-08
-2.650637356e-08
5.357966561e-08
8.296494227e-09
6.855791179e-09
-2.284519614e-08
-8.549298844e-09
-2.680218798e-08
3.670096665e-08
4.100261532e-08
5.920313356e-09
1.298404238e-09
-3.058704434e-09
-1.348589384e-08
1.594085589e-08
-2.150277173e-11
2.191584264e-08
2.853584035e-08
-2.244154979e-08
-1.492498523e-08
-2.639291121e-08
-8.561646736e-10
-1.856420944e-08
-5.720853265e-08
-9.146217016e-09
6.926629294e-08
-6.207966058e-08
-2.798768818e-08
-1.310906519e-07
-1.24264809e-07
-1.437450504e-07
-1.365954032e-07
-1.129270684e-07
-4.776154784e-08
-4.376780564e-08
-1.056460262e-07
-9.711352494e-08
-8.772835943e-08
-1.326662483e-07
-1.302788565e-07
-1.257365926e-07
-1.191905565e-07
-1.106020231e-07
-1.448499561e-07
-1.427815521e-07
-1.383058173e-07
-1.317544185e-07
-1.231753664e-07
-1.518035662e-07
-1.492277961e-07
-1.433315009e-07
-1.355407799e-07
-1.249194717e-07
-1.822693881e-07
-1.792102802e-07
-1.731100906e-07
-1.645863482e-07
-1.405621096e-07
-2.323262277e-07
-2.285456576e-07
-2.205838852e-07
-2.091272641e-07
-1.951178076e-07
-3.173360343e-07
-3.128646757e-07
-3.034220383e-07
-2.896963215e-07
-2.726851048e-07
-4.558077535e-07
-4.507128146e-07
-4.398314269e-07
-4.235973845e-07
-4.02615818e-07
-6.122181196e-07
-6.05934145e-07
-5.923964965e-07
-5.659443559e-07
-5.378589859e-07
-8.430059209e-07
-8.389811473e-07
-8.289805071e-07
-8.140732358e-07
-7.827094595e-07
-7.671750589e-07
-7.616641479e-07
-7.499797318e-07
-7.337120363e-07
-7.158206094e-07
-7.37347858e-07
-7.307831685e-07
-7.189938513e-07
-7.405210413e-07
-8.529591149e-07
-7.101438471e-07
-7.059310859e-07
-6.981397335e-07
-6.880316429e-07
-6.803372255e-07
-8.960131431e-07
-8.920994133e-07
-8.841940681e-07
-8.741855831e-07
-8.660391993e-07
-1.217013257e-06
-1.212009621e-06
-1.202653102e-06
-1.189120427e-06
-1.174850956e-06
-1.432491515e-06
-1.413816144e-06
-1.379356701e-06
-1.348184503e-06
-1.307811965e-06
-2.044712323e-06
-2.046547947e-06
-2.043851536e-06
-2.034348345e-06
-1.950256011e-06
-1.148938754e-06
-1.140670103e-06
-1.122243031e-06
-1.091184497e-06
-1.062727574e-06
-1.05086954e-06
-1.048138109e-06
-1.041261231e-06
-1.016994654e-06
-9.961891593e-07
-0.006945845004
-0.0008271990505
6.082468678e-05
2.953098328e-05
0.0004483027571
-0.0002174203757
-0.0001545461691
-6.009671862e-06
0.0001429773655
-0.0001301004778
-4.605411475e-05
-8.365163079e-05
6.066236089e-05
0.0001212702483
-0.001691370426
1.147672037e-05
0.0001296626732
0.00142144103
-0.002147494244
0.001579820397
0.002285295618
0.002179866575
0.001876606239
0.001155807196
0.0005366599961
0.000228255961
9.437563373e-05
4.006929613e-05
1.411818878e-05
7.43057472e-06
2.799691841e-06
1.082332357e-06
3.615608742e-07
1.671009398e-08
-1.676630016e-07
-2.44445072e-07
-2.037289085e-07
-8.28344325e-08
8.37896931e-08
2.058345646e-07
2.612831284e-07
1.726141941e-07
1.416780659e-07
-1.329203113e-08
1.13855615e-07
2.041345715e-08
2.038173559e-08
-8.262567936e-09
2.121649411e-08
-6.573285391e-09
-4.516301489e-08
-8.012284546e-08
-1.03483434e-07
-1.158785091e-07
-1.179234709e-07
-1.303271667e-07
-1.853256424e-07
-2.605658793e-07
-3.868173777e-07
-5.19769676e-07
-7.29687285e-07
-7.113868979e-07
-1.313687554e-06
-6.851536153e-07
-8.645003365e-07
-1.166400119e-06
-1.272720128e-06
-1.987185648e-06
-1.109718021e-06
-1.057656722e-06
-0.0003885578339
-5.072867129e-05
-1.700164436e-06
-5.748773055e-07
2.060822834e-08
-0.0002970915642
-0.004147039095
-3.945829974e-06
-4.819701127e-06
-4.485737909e-07
-0.0001289521137
-0.0005898266299
0.001868658742
1.551122495e-05
5.790629194e-06
-0.003309965123
-0.04471671117
0.002761185859
-3.58455576e-06
1.313569343e-05
2.735766781e-05
0.01519319527
0.1796584385
0.003288394044
-0.000116514569
0.0002789937892
-0.01699307626
-0.0003635461011
-0.001337267231
-0.0001448760444
-0.0001720379666
-0.001562306586
-0.027801759
-0.001296254194
0.000398968221
-0.001080246482
0.003559359476
0.08528756988
0.007864767919
0.0004816382649
0.0007210763307
0.0002102201208
0.01851270555
0.3527807004
0.01431391261
0.0002003770558
-0.0008947642549
-0.02863937861
-0.03357462386
-0.00793744556
-0.0001366234332
-0.0002739892237
0.0227182966
0.1140284131
-0.0002796271171
-0.0001370581634
2.547841559e-06
0.001317115835
-0.04694793681
0.01505885257
0.0002860919212
0.008649841429
0.0005953118511
0.001989409629
-0.000524401699
9.74122829e-05
-0.001206739299
0.0005531811415
0.0004457453016
-0.001011861512
0.0001071233978
-0.001437059891
0.0004923137493
0.0004222986139
-0.1883699672
0.0002772426657
-0.001454193657
0.004597483566
0.002748129162
-0.1372092771
-0.0004658015651
-0.002738443771
-0.003423039779
-0.0020755072
-0.09619845877
-0.001067501979
-0.003236400128
-0.007924356559
-0.01253335463
0.001381752156
-0.002162321824
-0.003812465567
-0.003181406317
0.03251586102
0.4020103565
0.00529124527
0.02290590988
0.05780711898
-0.01395640385
-0.9503847262
0.005174020102
0.01752529276
0.04556406031
0.08276340325
0.05538591095
0.003285716951
0.00715691392
0.01474944924
0.02547031326
0.02995060596
0.002244679451
0.003120147605
0.004337220619
0.005663435637
0.006244666892
0.001245067831
0.001336404293
0.001359455531
0.001314866684
0.001192144541
0.0006065232322
0.0005571540405
0.0004978978281
0.0004125383491
0.0003183634956
0.0002326126971
0.0002198092799
0.0001905952804
0.0001524349829
0.0001129829847
9.44834383e-05
9.350933428e-05
6.706356956e-05
5.897781283e-05
4.240860318e-05
3.721440295e-05
3.509934704e-05
3.780353831e-05
2.673757069e-05
1.857067634e-05
7.703917632e-06
1.337428462e-05
1.333738766e-05
9.349944102e-06
7.386019535e-06
6.477443772e-06
5.425685387e-06
5.449504005e-06
4.682779343e-06
3.388784929e-06
2.756766562e-06
2.301253192e-06
1.938993008e-06
1.742196703e-06
1.272131138e-06
9.336131432e-07
1.244969624e-06
1.110960293e-06
8.658225569e-07
3.95050143e-07
3.58301549e-07
3.151131804e-07
2.551616121e-07
1.587891068e-07
5.768529264e-08
-1.827231288e-08
-5.355175e-08
-9.924670612e-08
-1.643248719e-07
-2.262674929e-07
-1.781325715e-07
-2.128976761e-07
-2.949520972e-07
-3.369487456e-07
-3.816351076e-07
-2.492014523e-07
-2.868354404e-07
-3.302282749e-07
-4.097518884e-07
-4.69318847e-07
-2.301546359e-07
-2.271709602e-07
-2.785495945e-07
-3.443221868e-07
-4.413735662e-07
-1.459811572e-07
-6.178976873e-08
-1.298615827e-07
-1.625114348e-07
-2.526358039e-07
7.363275177e-08
9.623186013e-08
5.708284048e-08
4.250519742e-08
-1.387607276e-08
2.09283842e-07
2.133587e-07
2.061705559e-07
1.396961904e-07
2.874330166e-07
2.663014728e-07
2.688068933e-07
2.14314693e-07
2.914688863e-07
2.978720999e-07
1.672518237e-07
2.127595326e-07
2.723890165e-07
2.715710079e-07
2.875018385e-07
1.456189673e-07
1.580666149e-07
1.764749076e-07
1.955440987e-07
1.979376946e-07
3.541097184e-08
5.295231093e-08
5.319176596e-08
7.259944895e-08
6.426052277e-08
-1.00522551e-07
-2.386490289e-08
-3.640824776e-08
-6.14747889e-08
-1.819768236e-08
-1.327436586e-09
6.303482329e-08
-3.604008516e-08
1.320408235e-08
6.308766266e-09
7.843432614e-10
-4.864970566e-09
3.629494563e-08
1.067263988e-08
2.357477353e-08
1.311872663e-08
-1.949737042e-10
1.34921932e-09
1.400940829e-08
8.092985662e-10
-2.454427867e-08
-1.369229897e-08
-1.529673207e-09
-2.858442666e-08
-1.248835965e-08
-3.681360159e-10
-3.838308406e-08
-7.187145608e-09
-1.005725041e-08
-2.217171236e-08
-4.780191966e-08
-5.705398343e-08
5.170062555e-09
-3.798695718e-08
1.451334186e-08
-6.855460067e-08
-5.152823863e-08
-3.685853826e-08
-2.42875397e-08
-1.423262475e-08
-9.328539064e-08
-7.556581348e-08
-5.81363358e-08
-4.111166377e-08
-1.990804212e-08
-1.058122293e-07
-8.323222339e-08
-5.938305696e-08
-3.530714389e-08
-2.729038237e-08
-1.029268629e-07
-8.548523169e-08
-6.287714544e-08
-4.491277267e-08
-2.281160869e-08
-1.156202083e-07
-9.493625651e-08
-7.526560573e-08
-5.16764355e-08
-3.149399205e-08
-1.629090249e-07
-1.317976847e-07
-1.009309577e-07
-7.184932249e-08
-4.589673127e-08
-2.33820904e-07
-1.950171181e-07
-1.556200805e-07
-1.15774881e-07
-7.447223811e-08
-3.526377234e-07
-3.001120344e-07
-2.438394481e-07
-1.779589018e-07
-1.046080204e-07
-4.59641036e-07
-4.096807635e-07
-5.325126205e-07
-4.506494754e-07
-4.208403576e-07
-7.621585786e-07
-7.170554061e-07
-5.169862463e-07
-4.802290843e-07
-4.48296717e-07
-6.866657745e-07
-6.57691447e-07
-6.09423473e-07
-5.466366186e-07
-4.680835556e-07
-1.006385291e-06
-6.594244266e-07
-5.385866825e-07
-5.120464e-07
-4.891923861e-07
-6.552555445e-07
-6.155734698e-07
-5.900506194e-07
-5.680384802e-07
-5.478985771e-07
-8.276384997e-07
-7.953191278e-07
-7.643511674e-07
-7.298070033e-07
-6.880192702e-07
-1.116000572e-06
-1.057894464e-06
-9.931462418e-07
-8.895644238e-07
-7.280644009e-07
-1.161964473e-06
-1.128553218e-06
-1.933305121e-06
-1.726820145e-06
-1.651701202e-06
-2.06420801e-06
-2.0899464e-06
-1.02841072e-06
-1.021867371e-06
-9.628233725e-07
-1.035654906e-06
-1.044997454e-06
-1.082717238e-06
-1.078783804e-06
-1.052903316e-06
-1.160863805e-06
-1.089302419e-06
-1.684928631e-07
-1.05163118e-06
-9.122077202e-07
-1.038076733e-09
-6.298861318e-07
-7.37707971e-08
-4.030242232e-09
1.240742693e-08
2.845316244e-08
-3.630046545e-08
-3.320121646e-08
-3.444662426e-08
8.297924839e-10
2.588831375e-08
-3.008432601e-08
-7.163515835e-10
3.152001705e-08
2.789293518e-08
-2.332683614e-08
1.087485512e-11
-1.327684959e-08
-1.294751526e-08
1.526971108e-08
3.106076883e-08
3.933468229e-08
2.927785251e-08
1.988323876e-08
1.137823812e-08
3.445603908e-09
-3.892606948e-09
-1.070745383e-08
-1.715015505e-08
-2.31841616e-08
-2.893983063e-08
-3.44238112e-08
-3.894590256e-08
-3.407731283e-08
-2.938191397e-08
-2.497157619e-08
-2.082270835e-08
-1.67864551e-08
-1.294521724e-08
-9.36899832e-09
-5.944299867e-09
-2.684660723e-09
4.811952703e-10
3.691807198e-09
6.687642909e-09
9.519319496e-09
1.220288047e-08
1.478542951e-08
1.728376822e-08
1.966024203e-08
2.192447302e-08
2.412443184e-08
2.62529387e-08
2.828630563e-08
3.076830352e-08
3.887450111e-08
-1.073098838e-08
3.408365904e-08
3.878944538e-08
-3.956260406e-08
-1.039118925e-07
-2.760746589e-06
-2.976231719e-08
-1.743050331e-08
-2.019455548e-08
-4.412122695e-09
1.054794823e-08
2.053991782e-08
1.764636486e-08
1.635317258e-09
-1.804335857e-08
2.063516966e-08
-5.875278441e-10
-2.614698862e-08
-1.197967796e-08
-1.920277905e-08
8.727948133e-09
-7.274312799e-09
-8.300105254e-09
6.685401364e-09
6.869648991e-09
-1.246033737e-08
-1.041676615e-08
2.753133639e-09
1.422842111e-08
2.187866939e-08
1.260078515e-08
4.163863853e-09
-3.511625978e-09
-1.048750657e-08
-1.693207767e-08
-2.289330209e-08
-1.801683054e-08
-1.316996053e-08
-8.688036089e-09
-4.628419337e-09
-9.846311637e-10
2.580685547e-09
6.038926903e-09
9.324596442e-09
1.222609234e-08
1.496339859e-08
1.759168061e-08
2.010340333e-08
2.249832856e-08
2.264053769e-08
2.053332671e-08
1.865139192e-08
1.680877492e-08
1.524014059e-08
1.375353082e-08
1.240991343e-08
1.093233855e-08
9.607385792e-09
6.315629183e-09
-6.788758809e-09
5.844482134e-09
2.530348015e-09
2.819244543e-08
-1.606995397e-08
-3.896354685e-07
4.345550732e-07
-1.344157956e-08
-5.473975234e-08
-5.630418794e-08
-5.344597915e-08
-5.208851342e-08
-5.132070518e-08
-5.081417728e-08
-5.043319834e-08
-5.014287562e-08
-5.007412558e-08
-4.987763219e-08
-4.972371887e-08
-4.977052513e-08
-4.985792344e-08
-4.988657265e-08
-4.957255982e-08
-4.939604493e-08
-4.934629239e-08
-4.929498696e-08
-4.920046321e-08
-4.917489472e-08
-4.918655648e-08
-4.919760679e-08
-4.9200265e-08
-4.915460421e-08
-4.911436637e-08
-4.907798861e-08
-4.904592674e-08
-4.901742286e-08
-4.899140885e-08
-4.900046422e-08
-4.901109858e-08
-4.902117174e-08
-4.903214468e-08
-4.904330227e-08
-4.905315231e-08
-4.906226773e-08
-4.907108007e-08
-4.907979026e-08
-4.908798423e-08
-4.9096565e-08
-4.910464578e-08
-4.911275624e-08
-4.911404808e-08
-4.91082776e-08
-4.910342223e-08
-4.909672748e-08
-4.909275725e-08
-4.908859563e-08
-4.908497537e-08
-4.907936356e-08
-4.907710784e-08
-4.906788954e-08
-4.903730404e-08
-4.910177182e-08
-4.926424527e-08
-5.018113286e-08
-5.129979905e-08
-1.945508118e-06
-3.015117776e-07
-1.3722989e-07
-7.329239185e-08
-6.712429536e-08
-6.55938964e-08
-6.468887429e-08
-6.410762885e-08
-6.374791845e-08
-6.358000641e-08
-6.351097683e-08
-6.352416573e-08
-6.359294185e-08
-6.36959688e-08
-6.384703701e-08
-6.404793331e-08
-6.41598666e-08
-6.416764423e-08
-6.422206305e-08
-6.430729328e-08
-6.439548633e-08
-6.446869016e-08
-6.452841107e-08
-6.457953698e-08
-6.462619527e-08
-6.466945271e-08
-6.471013987e-08
-6.474921262e-08
-6.478667897e-08
-6.482281733e-08
-6.485746499e-08
-6.489041463e-08
-6.492239777e-08
-6.495335487e-08
-6.498240292e-08
-6.501091664e-08
-6.503887411e-08
-6.506480486e-08
-6.508909391e-08
-6.511273054e-08
-6.513559314e-08
-6.515585869e-08
-6.517542475e-08
-6.519344607e-08
-6.521048676e-08
-6.522588192e-08
-6.523980733e-08
-6.525209801e-08
-6.526222796e-08
-6.527192045e-08
-6.528013875e-08
-6.528698909e-08
-6.529198727e-08
-6.529848332e-08
-6.530951698e-08
-6.534649347e-08
-6.546589949e-08
-6.583395994e-08
-6.664113621e-08
-6.712443718e-08
-8.13025916e-06
-1.709012173e-06
2.079558102e-07
-1.839923185e-07
-6.465045711e-08
-5.58667297e-08
-5.543481714e-08
-5.567873878e-08
-5.591585467e-08
-5.616419798e-08
-5.638963844e-08
-5.658945319e-08
-5.679096401e-08
-5.699572378e-08
-5.720187067e-08
-5.74184536e-08
-5.759929683e-08
-5.774580716e-08
-5.7912511e-08
-5.808865013e-08
-5.824928594e-08
-5.838472876e-08
-5.849823218e-08
-5.859620618e-08
-5.868375443e-08
-5.876401847e-08
-5.883824673e-08
-5.890767661e-08
-5.897258653e-08
-5.903317963e-08
-5.909012253e-08
-5.914297851e-08
-5.919221836e-08
-5.92382146e-08
-5.928062126e-08
-5.932025432e-08
-5.93575925e-08
-5.939262878e-08
-5.942572407e-08
-5.945736435e-08
-5.948720595e-08
-5.951417251e-08
-5.953945974e-08
-5.956219001e-08
-5.958300115e-08
-5.9601204e-08
-5.961818717e-08
-5.963296598e-08
-5.96458516e-08
-5.965630473e-08
-5.966495345e-08
-5.967101453e-08
-5.967582351e-08
-5.967883368e-08
-5.968288963e-08
-5.968721864e-08
-5.969244646e-08
-5.966002536e-08
-5.938956035e-08
-5.87588951e-08
-1.595143491e-05
-6.918596973e-06
-9.326366124e-07
-3.279605287e-07
-4.829501628e-08
-4.001129643e-08
-4.1703174e-08
-4.275936559e-08
-4.343263242e-08
-4.393443075e-08
-4.428596013e-08
-4.455763316e-08
-4.47699481e-08
-4.494509566e-08
-4.510375688e-08
-4.525524017e-08
-4.538403009e-08
-4.551012845e-08
-4.566101406e-08
-4.582399775e-08
-4.597764527e-08
-4.610928765e-08
-4.621959545e-08
-4.631346598e-08
-4.639809048e-08
-4.647492558e-08
-4.654445089e-08
-4.660858537e-08
-4.666833607e-08
-4.672188993e-08
-4.677146182e-08
-4.681693603e-08
-4.685836412e-08
-4.689603602e-08
-4.693036048e-08
-4.696167782e-08
-4.699024571e-08
-4.701674881e-08
-4.704129658e-08
-4.706413003e-08
-4.708525456e-08
-4.710462254e-08
-4.712256932e-08
-4.713851426e-08
-4.715296582e-08
-4.716545581e-08
-4.717699717e-08
-4.718685182e-08
-4.719568771e-08
-4.720237225e-08
-4.720771077e-08
-4.721044511e-08
-4.721266533e-08
-4.721109841e-08
-4.720511364e-08
-4.717641525e-08
-4.707878533e-08
-4.676474952e-08
-4.599388311e-08
-4.509695511e-08
1.419774503e-05
-1.736945745e-05
-5.096535833e-06
-4.186228736e-07
-1.618977371e-07
-3.780927311e-08
-3.287530446e-08
-3.34759013e-08
-3.422952944e-08
-3.480390941e-08
-3.521366419e-08
-3.547866685e-08
-3.567156968e-08
-3.580443131e-08
-3.59127255e-08
-3.602011012e-08
-3.609226188e-08
-3.61431755e-08
-3.62228198e-08
-3.632350271e-08
-3.642501528e-08
-3.651694304e-08
-3.659396311e-08
-3.665826352e-08
-3.671543125e-08
-3.676700415e-08
-3.681356283e-08
-3.685595188e-08
-3.689388667e-08
-3.692762835e-08
-3.695807892e-08
-3.698487611e-08
-3.700880738e-08
-3.702992044e-08
-3.70481928e-08
-3.706470766e-08
-3.707878535e-08
-3.70916413e-08
-3.710316816e-08
-3.711348758e-08
-3.712287611e-08
-3.713128557e-08
-3.713904998e-08
-3.714615105e-08
-3.715292587e-08
-3.715884421e-08
-3.716447797e-08
-3.71692242e-08
-3.717393135e-08
-3.71778095e-08
-3.718108936e-08
-3.718307389e-08
-3.718467326e-08
-3.71827319e-08
-3.717422908e-08
-3.71399226e-08
-3.702936577e-08
-3.67186375e-08
-3.608533222e-08
-3.5464199e-08
2.987609014e-05
-1.840903349e-05
-1.862297301e-05
-3.07824411e-06
-1.420871721e-06
-1.18848948e-07
-1.660023333e-08
-2.47459244e-08
-2.811431046e-08
-2.951875053e-08
-3.021194145e-08
-3.057462781e-08
-3.075334251e-08
-3.090001111e-08
-3.100206309e-08
-3.107104816e-08
-3.111515912e-08
-3.112153855e-08
-3.114359387e-08
-3.11927733e-08
-3.125901366e-08
-3.130889635e-08
-3.135730461e-08
-3.139674015e-08
-3.142680803e-08
-3.145494761e-08
-3.14795755e-08
-3.150236654e-08
-3.152152586e-08
-3.153819349e-08
-3.155245394e-08
-3.156391443e-08
-3.157365567e-08
-3.158153957e-08
-3.158778205e-08
-3.159141834e-08
-3.15954054e-08
-3.159698123e-08
-3.159912774e-08
-3.159986664e-08
-3.160082449e-08
-3.160086133e-08
-3.160181146e-08
-3.160262744e-08
-3.16034646e-08
-3.160530332e-08
-3.160739108e-08
-3.160923799e-08
-3.16112245e-08
-3.161446131e-08
-3.161824232e-08
-3.162011021e-08
-3.162270071e-08
-3.162300374e-08
-3.161862475e-08
-3.159537194e-08
-3.152276916e-08
-3.133612628e-08
-3.099894188e-08
-3.069927789e-08
0.0001576765149
-3.909725607e-05
-4.447369837e-05
-1.133228794e-05
-1.183316202e-06
2.533915083e-06
1.921021514e-07
-6.956423399e-09
-2.375109792e-08
-2.672897054e-08
-2.773526458e-08
-2.832031234e-08
-2.863263786e-08
-2.873878705e-08
-2.886586753e-08
-2.896635667e-08
-2.898021556e-08
-2.895430431e-08
-2.896909305e-08
-2.900120023e-08
-2.903850446e-08
-2.907623165e-08
-2.910822178e-08
-2.912764996e-08
-2.915291457e-08
-2.916797519e-08
-2.918214925e-08
-2.919413291e-08
-2.920346185e-08
-2.921147037e-08
-2.921856966e-08
-2.922091474e-08
-2.922287786e-08
-2.922466336e-08
-2.922406853e-08
-2.922046213e-08
-2.92178495e-08
-2.921577487e-08
-2.920923944e-08
-2.920717158e-08
-2.920108268e-08
-2.91994395e-08
-2.91917731e-08
-2.919113881e-08
-2.91888718e-08
-2.918741059e-08
-2.918734552e-08
-2.918815386e-08
-2.918963955e-08
-2.919213336e-08
-2.919538573e-08
-2.91989427e-08
-2.920295139e-08
-2.920591787e-08
-2.92065228e-08
-2.91975033e-08
-2.916550149e-08
-2.908564158e-08
-2.895321593e-08
-2.884258054e-08
-3.336338493e-05
4.953449982e-06
-6.875133459e-05
-3.309490057e-05
-3.613192502e-06
6.445661221e-08
-5.041942353e-08
-9.061126498e-09
-1.99683487e-08
-2.429415149e-08
-2.626594656e-08
-2.709800921e-08
-2.764697071e-08
-2.793254568e-08
-2.804082702e-08
-2.813852483e-08
-2.819055304e-08
-2.815750361e-08
-2.81551429e-08
-2.818999272e-08
-2.822747567e-08
-2.826199689e-08
-2.829119819e-08
-2.831253695e-08
-2.832840383e-08
-2.834162277e-08
-2.835346702e-08
-2.836326333e-08
-2.83707282e-08
-2.837630786e-08
-2.838027759e-08
-2.838225616e-08
-2.838243857e-08
-2.83809645e-08
-2.837778436e-08
-2.837294526e-08
-2.836708928e-08
-2.836039377e-08
-2.835312759e-08
-2.834582445e-08
-2.833927667e-08
-2.833184091e-08
-2.832614275e-08
-2.832144957e-08
-2.831764893e-08
-2.831498159e-08
-2.831356161e-08
-2.831339423e-08
-2.831449824e-08
-2.831686693e-08
-2.832035368e-08
-2.832465222e-08
-2.832959545e-08
-2.833457648e-08
-2.833890861e-08
-2.833970572e-08
-2.833251226e-08
-2.831001195e-08
-2.827307994e-08
-2.82423044e-08
-4.527565075e-05
0.0002274355618
-5.485832447e-05
-8.57616578e-05
-1.131690148e-05
9.130875104e-07
3.964261655e-06
2.716998698e-07
3.558758343e-09
-1.893122198e-08
-2.413562795e-08
-2.617171705e-08
-2.709777781e-08
-2.749357153e-08
-2.769474606e-08
-2.784015874e-08
-2.789551608e-08
-2.78626201e-08
-2.786543199e-08
-2.790340503e-08
-2.79504346e-08
-2.798847815e-08
-2.801899684e-08
-2.804315224e-08
-2.80617528e-08
-2.807695328e-08
-2.809014043e-08
-2.810140569e-08
-2.81103539e-08
-2.811714869e-08
-2.812200391e-08
-2.812476087e-08
-2.812522497e-08
-2.812357509e-08
-2.812009354e-08
-2.811499072e-08
-2.810851082e-08
-2.810094546e-08
-2.809273507e-08
-2.808430246e-08
-2.807602944e-08
-2.806807674e-08
-2.806092913e-08
-2.805481404e-08
-2.804991258e-08
-2.804622505e-08
-2.804390274e-08
-2.804310322e-08
-2.804381092e-08
-2.804600174e-08
-2.804952887e-08
-2.805415521e-08
-2.805972099e-08
-2.806591427e-08
-2.807242796e-08
-2.807837397e-08
-2.808260865e-08
-2.808356613e-08
-2.808127832e-08
-2.807725105e-08
-0.001703570364
-7.918600354e-05
-3.907917006e-05
-0.000191553639
-2.566080295e-05
4.454317795e-06
-1.104723986e-06
7.422758875e-08
4.736076409e-08
-7.32075447e-09
-2.091860905e-08
-2.520035119e-08
-2.658914872e-08
-2.717788003e-08
-2.754634106e-08
-2.769906168e-08
-2.77270672e-08
-2.772808253e-08
-2.773851794e-08
-2.778705707e-08
-2.783073186e-08
-2.787911835e-08
-2.791910582e-08
-2.794635446e-08
-2.796963128e-08
-2.798976863e-08
-2.800635238e-08
-2.802053913e-08
-2.803250895e-08
-2.804193537e-08
-2.804890981e-08
-2.80535533e-08
-2.80557282e-08
-2.805543365e-08
-2.80529419e-08
-2.804855034e-08
-2.804250996e-08
-2.803512516e-08
-2.802677108e-08
-2.801790904e-08
-2.800900672e-08
-2.800039345e-08
-2.799236098e-08
-2.798529438e-08
-2.797952189e-08
-2.797507238e-08
-2.797208764e-08
-2.797075461e-08
-2.797106474e-08
-2.797301142e-08
-2.797647713e-08
-2.79812576e-08
-2.798718696e-08
-2.799408621e-08
-2.80018082e-08
-2.801012938e-08
-2.801884334e-08
-2.802777788e-08
-2.80358129e-08
-2.803930881e-08
-0.0003399818634
-3.902217543e-05
-3.700885955e-05
-0.0003461473204
-3.673660179e-05
1.517401671e-05
2.69634208e-06
5.116745025e-06
1.902966195e-07
1.361365812e-08
-1.616749957e-08
-2.375496394e-08
-2.594340155e-08
-2.686018409e-08
-2.731700382e-08
-2.752033495e-08
-2.760552724e-08
-2.762279515e-08
-2.766037396e-08
-2.771213198e-08
-2.776401589e-08
-2.781135759e-08
-2.78588258e-08
-2.78958012e-08
-2.792430427e-08
-2.794804419e-08
-2.796846206e-08
-2.79865321e-08
-2.800209562e-08
-2.801470815e-08
-2.802452709e-08
-2.803171907e-08
-2.803622566e-08
-2.803802218e-08
-2.803725146e-08
-2.803419697e-08
-2.802916196e-08
-2.802248231e-08
-2.801452847e-08
-2.800573573e-08
-2.799662775e-08
-2.798765778e-08
-2.797914032e-08
-2.797144606e-08
-2.796501073e-08
-2.795998076e-08
-2.795645911e-08
-2.795465088e-08
-2.795460014e-08
-2.795630103e-08
-2.795965888e-08
-2.796451041e-08
-2.797067641e-08
-2.797802529e-08
-2.798646407e-08
-2.799591546e-08
-2.800633963e-08
-2.801770543e-08
-2.802824024e-08
-2.803373493e-08
-0.0004026315464
-9.253777606e-05
-0.0002465429096
-0.0003554888403
-1.780407309e-05
5.817500791e-05
1.101469788e-05
-3.562635544e-07
8.515779599e-07
8.569532481e-08
-5.957034585e-09
-2.131463546e-08
-2.522708217e-08
-2.655421037e-08
-2.708125671e-08
-2.731554001e-08
-2.744262878e-08
-2.751829714e-08
-2.758407669e-08
-2.765165751e-08
-2.770363114e-08