/*--------------------------------*- C++ -*----------------------------------*\
  =========                 |
  \\      /  F ield         | OpenFOAM: The Open Source CFD Toolbox
   \\    /   O peration     | Website:  https://openfoam.org
    \\  /    A nd           | Version:  10
     \\/     M anipulation  |
\*---------------------------------------------------------------------------*/
FoamFile
{
    format      ascii;
    class       volScalarField;
    location    "0.02498436188";
    object      ddt0(rho,CH3O);
}
// * * * * * * * * * * * * * * * * * * * * * * * * * * * * * * * * * * * * * //

dimensions      [1 -3 -1 0 0 0 0];

internalField   nonuniform List<scalar> 
5170
(
-3.117908236e-05
-3.117838694e-05
-3.130407032e-05
-2.579543148e-05
2.368620085e-07
-3.119171806e-05
-3.142484986e-05
-2.332198356e-05
2.302810224e-05
3.473920085e-05
3.982361359e-06
1.380776073e-05
3.318165709e-05
3.790307944e-05
-2.052267966e-05
2.595186612e-05
3.673867274e-05
3.613367173e-05
2.485648475e-05
-3.283243413e-05
3.631274841e-05
3.563263987e-05
1.000302062e-05
-2.32516798e-05
-3.14441753e-05
8.710325683e-06
-3.846957929e-06
-2.334721625e-05
-3.340690697e-05
-3.114541549e-05
-1.861229541e-05
-3.064099722e-05
-3.325903072e-05
-2.023720815e-05
-3.126219e-05
-3.332853177e-05
-3.22934154e-05
-9.668662675e-06
-3.254453934e-06
-3.140029025e-05
-1.597530574e-05
-1.496566557e-06
1.400343215e-05
1.579939342e-05
-1.77436256e-05
2.010796332e-05
3.09211448e-05
2.008355478e-05
2.034587953e-05
1.011138147e-05
1.934586076e-05
4.153805055e-06
-1.108942354e-05
-7.76001298e-06
2.236842119e-05
-4.8494319e-06
-1.45393062e-05
-2.619001698e-05
-2.184428246e-05
1.644997162e-05
-1.938223774e-05
-1.507389021e-05
1.034157273e-06
-6.632827835e-06
-1.046811409e-07
4.236613413e-06
1.398273335e-05
2.323415808e-05
1.656038506e-05
-2.19759308e-05
9.800039078e-06
-1.580608975e-06
-1.390705376e-05
-3.532363623e-06
7.702400187e-06
-2.049975786e-05
-9.42607676e-06
1.944947912e-06
-1.061390818e-05
-3.497740219e-06
1.781757221e-05
7.163137171e-06
-3.030868071e-06
1.151147297e-05
-1.242618106e-05
-6.187960757e-06
4.001986719e-06
1.269944412e-05
-4.405038073e-06
1.590305191e-05
-1.813138797e-06
-1.135888347e-05
-1.814250811e-05
1.765248871e-06
-2.143752842e-06
1.233555658e-05
1.838785195e-05
1.931929204e-06
5.645138418e-08
9.927381634e-07
-1.106078378e-18
-8.567546354e-19
-1.754879767e-18
5.913431851e-19
2.750063703e-18
7.416316746e-19
4.329419963e-18
3.143018655e-18
3.432703084e-18
-1.257974544e-17
-5.32176162e-18
-4.655813096e-19
-2.872725282e-20
-1.83382564e-19
5.529858935e-18
-1.208060924e-18
8.893756496e-19
1.062479991e-18
-2.134243196e-18
4.467316571e-18
1.78560776e-15
2.540379423e-17
3.812389336e-19
-2.951457128e-17
4.868688248e-15
-6.071251477e-14
1.037486569e-15
3.64643824e-15
-3.60225205e-15
-3.918407333e-14
-4.330819718e-14
-4.90282348e-14
-4.259974843e-14
-8.125507684e-15
-2.105210273e-12
-2.110720076e-12
-2.339725723e-14
-1.136230553e-14
-2.188955537e-12
7.664288653e-14
9.947433858e-14
-2.164664196e-12
-2.191361458e-12
-2.495468936e-13
5.312670995e-15
-1.105894387e-15
1.097058302e-13
-7.848276507e-16
-1.384030416e-13
-3.948265593e-12
-7.728689088e-12
-2.249780456e-13
3.731160523e-15
4.492850629e-14
-1.086858652e-12
-5.029429643e-13
-2.165350176e-14
1.026629914e-13
1.026936726e-13
1.027436283e-13
-3.697354665e-13
1.82579446e-14
-2.275666315e-13
1.416070823e-12
6.671544042e-13
-2.035199934e-12
5.230247312e-14
2.909331048e-12
-9.099698675e-12
-6.867049348e-13
-5.583966574e-12
-2.939026941e-12
2.593982256e-12
7.553790138e-11
-1.530484295e-12
-4.602399686e-12
2.797478579e-11
1.333707952e-11
-3.720449364e-11
-1.095253868e-13
5.945230149e-11
6.180526426e-11
2.370278859e-11
-4.276447775e-11
1.281452433e-12
-1.587969239e-10
4.25282219e-11
-3.024224341e-11
1.610536392e-10
-3.977617303e-11
3.963979129e-09
-8.121978133e-10
3.512991665e-10
1.512765326e-11
-1.338310028e-12
7.770674955e-07
-1.839174259e-08
-1.038044571e-08
-9.580757052e-10
1.86121885e-10
-5.91233827e-06
-2.733881463e-08
1.157139209e-06
1.917171372e-05
0.001366851248
6.680581313e-07
2.522085795e-07
3.115390084e-06
8.53181012e-06
6.579846984e-05
1.296456168e-05
-3.226186596e-06
-0.0001235732227
1.798538677e-05
-3.132009069e-05
-1.976707275e-06
1.52435976e-06
-2.770715813e-05
5.51695688e-05
-4.757932336e-06
5.660945401e-07
3.530641845e-06
5.528249449e-06
5.025531998e-05
5.127122736e-05
2.829587201e-07
-7.399757625e-07
1.094957077e-06
3.194978624e-05
7.607783865e-07
2.71430611e-07
-1.599084385e-06
1.220561471e-06
5.498636754e-06
1.489652163e-06
7.378016607e-06
8.466293389e-05
7.118289977e-06
7.872928787e-06
2.712734642e-05
8.383912588e-07
3.637794151e-05
5.437722138e-06
7.851139911e-06
1.379020939e-05
-3.238711694e-07
-2.426212125e-06
3.787301792e-06
2.398456501e-06
-6.380615992e-06
-1.007976817e-06
-5.860209464e-06
-2.216170178e-06
1.51355756e-06
-2.343023624e-06
-1.364104008e-05
-9.925966648e-06
-2.854509218e-06
2.708636778e-06
4.566545847e-06
-7.696636048e-06
-5.257546189e-06
-1.645826737e-06
2.934539321e-06
5.135992193e-06
-1.83290034e-06
-2.373918983e-06
-1.899731359e-06
-9.468999664e-07
1.560811219e-06
4.559709653e-06
6.163544018e-07
-6.838181546e-07
-2.150648809e-06
-5.845161821e-06
1.688687774e-06
-7.145785223e-07
-2.459509701e-06
-3.876793294e-06
-1.883222423e-06
-5.253543496e-06
-1.044244626e-07
0.0001105753423
-3.571206262e-06
4.276596188e-05
-8.93300611e-06
-1.586140997e-05
-6.75003494e-06
-1.199343933e-05
8.081628565e-05
-9.406826939e-05
-3.370701611e-05
-2.791163312e-05
-6.524462814e-05
-3.224111128e-05
-2.057933038e-05
-1.941863453e-05
-2.859083633e-05
-3.396472395e-05
-3.042487114e-05
-1.565926239e-05
-2.091539751e-05
-3.092541071e-05
-4.057733224e-05
-4.639553476e-05
-2.939281522e-05
-3.429320938e-05
-4.429224874e-05
-5.827762038e-05
-7.546148332e-05
-3.752343242e-05
-4.04695391e-05
-4.687266857e-05
-5.747527051e-05
-7.299927391e-05
-2.596629745e-05
-2.641619216e-05
-2.558319061e-05
-2.667560149e-05
-2.755825459e-05
3.153517831e-06
5.345312975e-06
9.077862693e-06
1.405451842e-05
2.517965623e-05
2.79864202e-05
2.937592512e-05
3.256796339e-05
3.781416515e-05
4.393446035e-05
2.91601898e-05
2.970422128e-05
3.109101531e-05
3.227439489e-05
3.40882414e-05
1.911694445e-05
1.915745446e-05
1.925097292e-05
1.950833098e-05
1.91249609e-05
1.016401669e-05
1.011354458e-05
1.010535441e-05
9.814784632e-06
9.103241292e-06
4.841886498e-06
4.872770661e-06
4.857921928e-06
4.743352084e-06
4.487727416e-06
1.073981387e-06
1.049571349e-06
1.369867775e-06
2.303162226e-06
1.619962318e-06
6.169640119e-07
6.160374277e-07
6.062163283e-07
6.413068635e-07
6.097454909e-07
2.360290101e-07
2.20091482e-07
1.356242254e-07
1.039295538e-07
1.056359447e-07
4.53049478e-08
4.386786472e-08
3.94396386e-08
3.39830823e-08
2.671813125e-08
-3.890083931e-08
-4.005549186e-08
-3.32408176e-08
-3.638986913e-08
-4.383191359e-08
-5.943893883e-08
-6.062530509e-08
-6.298813367e-08
-6.623722344e-08
-7.145708042e-08
-4.733708092e-08
-4.874622534e-08
-5.603688576e-08
-5.939433566e-08
-6.136742575e-08
-1.458733436e-08
-1.54520906e-08
-1.808187775e-08
-2.6484102e-08
-3.121185101e-08
1.570512426e-08
1.501465505e-08
1.383183541e-08
1.776965246e-08
1.04550133e-08
4.575499997e-08
4.373998538e-08
4.06759204e-08
4.940520216e-08
4.969959723e-08
6.356587653e-08
6.384583548e-08
6.434153521e-08
6.507715087e-08
6.609678913e-08
5.045510634e-08
5.133603145e-08
5.26731033e-08
5.430364113e-08
4.913242254e-08
-2.031800531e-08
1.366722611e-08
2.187146611e-08
2.383528341e-08
2.772716391e-08
-6.4612539e-09
-3.819002676e-09
5.804837007e-11
6.710054307e-09
8.055912407e-09
-9.670882595e-09
-1.089244636e-08
2.424787496e-08
1.697425558e-08
3.868752288e-09
-3.458139113e-08
-3.578053143e-08
-3.664049314e-08
-3.392066381e-08
-3.427510158e-08
-3.810479069e-08
-3.749242595e-08
-4.03830791e-08
-3.755078256e-08
-1.909955278e-08
-7.937035955e-09
-6.935567853e-09
-1.37088877e-09
-4.471431984e-10
1.131898128e-09
-2.688065681e-09
-2.822844381e-09
-2.917964668e-09
-2.952605333e-09
-2.111169526e-09
-1.038523658e-09
-4.326315172e-10
-8.047113564e-11
-8.081934288e-10
-1.074411778e-09
2.727031102e-08
2.694671244e-09
-2.065905573e-08
-1.994353463e-08
1.723770612e-08
2.903723198e-08
3.13674305e-08
-1.309875725e-08
-9.911397351e-09
-7.598040443e-09
-1.83907616e-08
-1.763853691e-08
-1.643986732e-08
-1.475730699e-08
-1.276993232e-08
-2.071706323e-08
-2.027440308e-08
-1.937630737e-08
-1.81325547e-08
-1.677737098e-08
-3.147806123e-08
-3.085666564e-08
-2.956447036e-08
-2.768529397e-08
-2.53928386e-08
-3.61505712e-08
-3.540852412e-08
-3.383054056e-08
-3.148752184e-08
-3.030154957e-08
-4.049497646e-08
-3.951876456e-08
-3.752986596e-08
-3.471752784e-08
-3.180027632e-08
-5.763079224e-08
-5.65208646e-08
-5.426017828e-08
-5.104070439e-08
-4.757981119e-08
-8.200714692e-08
-8.075021522e-08
-7.815627939e-08
-7.438129575e-08
-7.008741347e-08
-1.105903491e-07
-1.089136897e-07
-1.054373237e-07
-9.928432875e-08
-9.311581332e-08
-1.583248057e-07
-1.568213313e-07
-1.534929648e-07
-1.484941365e-07
-1.411204658e-07
-1.85639244e-07
-1.839023264e-07
-1.799491831e-07
-1.737381707e-07
-1.64459549e-07
-1.649362767e-07
-1.614132972e-07
-1.550141345e-07
-1.386927639e-07
-1.447139022e-07
-1.999506258e-07
-1.981394646e-07
-1.943706008e-07
-1.8931388e-07
-1.825606324e-07
-2.39958507e-07
-2.382295078e-07
-2.344504819e-07
-2.292408654e-07
-2.220000277e-07
-2.977337683e-07
-2.955568482e-07
-2.911224159e-07
-2.850977968e-07
-2.772291754e-07
-3.664224341e-07
-3.619657766e-07
-3.531204554e-07
-3.4105547e-07
-3.265554445e-07
-5.929208996e-07
-5.92895745e-07
-5.895838414e-07
-5.816547542e-07
-5.47516331e-07
-2.363235474e-07
-2.329601654e-07
-2.250708521e-07
-2.100114391e-07
-1.987616936e-07
-2.23542342e-07
-2.205584286e-07
-2.137082487e-07
-1.998580342e-07
-1.911242584e-07
-0.007769627737
0.0008391893034
0.0001927860062
7.403560697e-05
-8.824593367e-06
1.216913973e-05
-7.431311317e-06
1.449278571e-05
3.19156214e-05
-4.34034634e-06
-3.339774129e-06
1.585878884e-06
2.369340324e-06
2.033032859e-06
-4.998009943e-05
9.642551639e-07
-1.786525856e-07
2.112745019e-05
-2.229197217e-05
-2.52936389e-05
-4.575628204e-05
-8.827360595e-05
-8.796168458e-05
-2.844274708e-05
3.20365985e-05
4.923456464e-05
3.51421098e-05
1.903701151e-05
8.093803426e-06
4.263528586e-06
1.522806261e-06
5.376661415e-07
1.669282268e-07
2.329355046e-08
-4.768810077e-08
-7.301325329e-08
-6.356446627e-08
-3.298111418e-08
7.658580997e-09
4.863206147e-08
6.695663171e-08
2.394966635e-08
2.707050613e-08
7.040888283e-09
2.983612823e-09
-3.718331551e-08
-1.13354664e-08
1.491695656e-09
-1.677985557e-10
-5.733077036e-09
2.561717197e-08
-6.624464692e-09
-1.1695296e-08
-1.633514141e-08
-2.312286058e-08
-2.789147938e-08
-3.042180967e-08
-4.578613236e-08
-6.756687868e-08
-8.945044206e-08
-1.335120729e-07
-1.549399657e-07
-1.893153155e-07
-1.741267402e-07
-2.119835101e-07
-2.670179756e-07
-3.032645829e-07
-5.619209983e-07
-2.393645189e-07
-2.316907869e-07
0.0008409547525
1.658625603e-05
-5.438688576e-08
-7.482176684e-09
1.458578027e-11
0.0001090510268
-9.753220543e-06
-2.641388524e-07
-1.21603822e-08
-7.011312233e-10
3.385430782e-05
6.651953646e-06
3.433982602e-06
2.991278897e-08
2.86788182e-08
-3.04590465e-06
-0.0001089678713
-1.192092136e-05
-1.716154764e-07
3.865853577e-08
-4.791979034e-05
-1.681824169e-05
4.426781015e-05
7.296982284e-07
-2.195661415e-08
9.735507668e-06
-1.797010743e-05
2.322307824e-06
-2.761208469e-07
-4.18381519e-08
2.250120924e-05
1.047762191e-05
-5.800701654e-06
5.182023096e-06
3.763658962e-07
-2.437874937e-05
-5.557612936e-07
-4.024216344e-06
2.935193719e-07
9.165879118e-08
3.600882001e-05
1.612664305e-05
1.704949906e-06
5.375289213e-05
1.109419481e-06
9.953103884e-06
-8.974357307e-06
-2.429449217e-05
-1.314867733e-05
-2.767300994e-07
-7.018965407e-06
-4.050202552e-06
2.066199779e-05
-1.290194838e-05
1.158481598e-07
-4.494211354e-07
-1.149086758e-06
4.067184212e-07
3.438856047e-05
5.522648138e-06
5.425614494e-07
3.240247817e-05
4.525861465e-07
2.666826149e-07
-5.146802022e-08
1.662881197e-06
-6.714270756e-06
-2.712411149e-07
-6.019787926e-07
-5.870783868e-07
-2.606486182e-06
-7.34434072e-06
-3.379765731e-07
-7.076101017e-07
-1.078156715e-05
2.243554309e-05
-9.307481176e-06
3.518801254e-06
-6.009630375e-07
1.38202796e-06
-2.585425743e-05
-1.174077822e-05
-7.492152886e-06
-3.315337875e-06
1.009838734e-05
-5.090824097e-06
-5.304514524e-06
-7.887202509e-06
-8.838681083e-06
7.130074521e-06
-1.616390689e-05
-1.633664415e-05
-2.075912161e-05
-1.641711321e-05
4.902845298e-05
-1.345113324e-05
2.216273447e-06
-4.316824573e-05
-0.0007252766892
-0.002125065953
-3.558695352e-05
7.297655471e-06
0.0001428143756
0.0003974036873
5.346674029e-07
-0.0001019641362
-0.0001106669062
-2.131618823e-05
0.0004805401325
0.001995985852
-0.0001140352143
-0.0001506013105
-0.000124847267
0.0001607780419
0.001093715405
-3.557113365e-05
-3.234503407e-05
7.2714651e-06
0.000126014391
0.0003490289816
3.643979215e-05
6.373931582e-05
9.637877925e-05
0.000133545501
0.000164241803
5.670085515e-05
6.856909771e-05
7.799911352e-05
8.163267879e-05
7.756651295e-05
3.789803492e-05
4.080660031e-05
4.244537355e-05
3.797000741e-05
3.14606771e-05
1.929421416e-05
1.928550072e-05
2.139654044e-05
1.75753255e-05
1.328753059e-05
4.717856492e-06
8.056587603e-06
8.165261033e-06
6.073074512e-06
4.932701366e-06
3.792686412e-06
3.260296238e-06
3.281068434e-06
2.827249816e-06
2.088095755e-06
1.513001443e-06
1.244696663e-06
9.978583514e-07
9.34443347e-07
6.691939478e-07
4.343152715e-07
6.643461602e-07
5.965089076e-07
5.202457307e-07
1.392631531e-07
1.713418906e-07
1.559911115e-07
1.330164439e-07
9.12905739e-08
5.753055735e-08
1.028019521e-08
5.876946331e-10
-2.193329764e-08
-4.469434616e-08
-5.818849393e-08
-5.098121389e-08
-6.216086014e-08
-9.225339605e-08
-9.463684378e-08
-1.083561593e-07
-8.149495162e-08
-8.61603054e-08
-9.685581817e-08
-1.108977676e-07
-1.238574803e-07
-7.02178172e-08
-7.292700674e-08
-8.533709983e-08
-1.021977175e-07
-1.547291407e-07
-4.962960403e-08
-1.924381678e-08
-4.407740097e-08
-5.637154916e-08
-1.105971944e-07
1.316978969e-08
2.831396856e-08
4.703888229e-09
-2.077120259e-09
-4.394624196e-08
4.729845473e-08
5.118825044e-08
4.607317715e-08
-1.037950573e-09
5.511229829e-08
6.847907299e-08
6.667839656e-08
2.802337204e-08
6.249126727e-08
7.440272295e-08
1.510925782e-08
5.233676592e-08
5.934031439e-08
6.69154566e-08
7.198134581e-08
3.521033956e-08
3.472657294e-08
3.999687452e-08
4.754888502e-08
3.532945926e-08
1.072832071e-08
1.375314345e-08
-1.403286348e-09
-9.704453839e-10
-2.367026198e-08
-1.633076881e-08
2.936261811e-08
-2.206904746e-08
1.882573093e-09
-1.848695073e-08
-2.053264926e-08
3.600325874e-08
-2.919757776e-08
-3.150287463e-08
-2.878469384e-09
-5.099061261e-10
7.104295641e-09
-4.329404543e-09
2.832519314e-09
-5.477193897e-09
2.083693174e-09
-4.746903668e-09
-3.66912478e-09
-3.313286313e-09
-7.85785879e-09
-2.374772914e-09
-2.244655781e-09
-1.966488985e-09
-7.183651377e-09
1.270553495e-08
-8.982295971e-09
-2.227941596e-08
2.287125202e-09
5.456452383e-09
-1.656351306e-09
3.638499061e-08
-1.453398508e-08
3.967037456e-08
4.492777283e-09
4.437403055e-09
-3.43936002e-09
4.593869794e-10
2.751509035e-09
4.821592061e-09
5.922842005e-09
-8.416302419e-09
-4.538787807e-09
-1.463684333e-09
3.905644252e-10
-8.356113325e-10
-1.417927251e-08
-1.402199736e-08
-9.776898389e-09
-5.351746559e-09
-2.642757872e-09
-2.048526134e-08
-1.539062998e-08
-1.059688975e-08
-6.938018963e-09
3.625042594e-09
-2.505196822e-08
-9.336328342e-09
-5.0747214e-09
-2.59567077e-10
3.335041418e-09
-2.367149135e-08
-1.656150714e-08
-9.859684256e-09
-3.866315508e-09
9.848597419e-10
-3.819657416e-08
-2.964735773e-08
-2.136029715e-08
-1.336032496e-08
-5.6385091e-09
-5.85854851e-08
-4.758732651e-08
-3.651068664e-08
-2.43938049e-08
-1.128499989e-08
-7.581667154e-08
-6.350131568e-08
-7.46363145e-08
-6.192472206e-08
-5.053038168e-08
-1.272805935e-07
-1.111194134e-07
-9.337882785e-08
-7.295805272e-08
-4.889318322e-08
-1.451381103e-07
-1.21631222e-07
-9.674266307e-08
-6.831641798e-08
-3.719140972e-08
-1.63856336e-07
-1.073128408e-07
-1.214752139e-07
-1.012117794e-07
-8.71687824e-08
-1.68294203e-07
-1.509336011e-07
-1.349297297e-07
-1.195991282e-07
-1.043717331e-07
-2.037327547e-07
-1.845670549e-07
-1.660523541e-07
-1.478696012e-07
-1.300523889e-07
-2.584385277e-07
-2.389494473e-07
-2.173407093e-07
-1.879569186e-07
-1.51397865e-07
-2.976978868e-07
-2.88138797e-07
-5.328287896e-07
-4.664746386e-07
-4.38352329e-07
-5.95406651e-07
-6.205721304e-07
-1.2997471e-07
-1.348662043e-07
-1.091844956e-07
-1.931547762e-07
-1.900252823e-07
-1.634902373e-07
-1.410008524e-07
-1.199183455e-07
-2.523513504e-07
-2.197863314e-07
1.889799257e-07
-3.132087989e-07
-2.424543501e-07
-3.463628381e-09
-1.796329779e-08
3.957990856e-09
-1.210197826e-08
-9.336677187e-09
-1.131265167e-08
-1.134154259e-08
-1.13345994e-08
-1.132670926e-08
-1.132222526e-08
-1.132044952e-08
-1.132826215e-08
-1.133635214e-08
-1.134393115e-08
-1.13341684e-08
-1.130175085e-08
-1.130330428e-08
-1.135286658e-08
-1.136610251e-08
-1.136635145e-08
-1.136853936e-08
-1.137163558e-08
-1.137452409e-08
-1.137783044e-08
-1.137984404e-08
-1.138222971e-08
-1.138343023e-08
-1.138448371e-08
-1.138564973e-08
-1.13869383e-08
-1.138815461e-08
-1.138929856e-08
-1.139042218e-08
-1.139153988e-08
-1.139256744e-08
-1.13936395e-08
-1.13946835e-08
-1.139567926e-08
-1.139663556e-08
-1.139755787e-08
-1.139844542e-08
-1.139929876e-08
-1.14001243e-08
-1.140091874e-08
-1.140168863e-08
-1.140242758e-08
-1.140314776e-08
-1.140384409e-08
-1.140451643e-08
-1.140516553e-08
-1.140579367e-08
-1.140640203e-08
-1.140699624e-08
-1.140758757e-08
-1.140815981e-08
-1.140873911e-08
-1.140970749e-08
-1.142321951e-08
-9.183081622e-09
-9.144821111e-09
-2.846489198e-08
-3.368135664e-07
2.091906488e-08
-1.227475853e-08
-1.212886167e-08
-6.561300127e-09
-1.227513806e-08
-1.12727472e-08
-7.757733217e-09
-5.339324845e-09
-3.668670859e-09
-5.001994863e-09
-6.510292317e-09
-8.00554156e-09
-4.642893073e-09
-1.293176967e-08
-1.237393492e-08
-8.292226754e-09
-1.097529723e-08
-1.017802192e-08
-1.016619395e-08
-1.053203568e-08
-1.085846542e-08
-1.137847834e-08
-1.14485464e-08
-1.169213309e-08
-1.157203786e-08
-1.149204487e-08
-1.133198932e-08
-1.125090092e-08
-1.114051254e-08
-1.099987916e-08
-1.088871253e-08
-1.082262841e-08
-1.071139686e-08
-1.075133523e-08
-1.077733483e-08
-1.082546475e-08
-1.087712094e-08
-1.092194057e-08
-1.096583009e-08
-1.101391775e-08
-1.10570366e-08
-1.110174238e-08
-1.113880287e-08
-1.118615953e-08
-1.122521511e-08
-1.12674234e-08
-1.131192536e-08
-1.135307253e-08
-1.13908222e-08
-1.143272778e-08
-1.147743505e-08
-1.15179225e-08
-1.156481549e-08
-1.160775082e-08
-1.165879512e-08
-1.133575529e-08
-1.351591582e-08
-1.157686756e-08
-1.050583309e-07
-9.585058678e-07
-2.043843728e-09
2.433991276e-08
-2.229791684e-08
-1.22717033e-08
-1.387787647e-08
-7.508394646e-09
-5.822278856e-09
-8.560192195e-09
-1.111169894e-08
-1.136209802e-08
-1.094934709e-08
-1.137212461e-08
-1.129325952e-08
-1.400757888e-08
-1.325788728e-08
-1.147551921e-08
-7.670714358e-09
-7.407245146e-09
-7.258802513e-09
-6.795703419e-09
-6.304850246e-09
-5.769951114e-09
-5.418527027e-09
-4.995194609e-09
-4.58929645e-09
-4.263054922e-09
-3.890050553e-09
-4.000351525e-09
-4.29939537e-09
-4.603133092e-09
-4.877807475e-09
-5.101509322e-09
-5.384136905e-09
-5.623057095e-09
-5.805136945e-09
-6.043426871e-09
-6.298126121e-09
-6.537251399e-09
-6.754379826e-09
-7.003558901e-09
-7.219214197e-09
-7.432756492e-09
-7.625137594e-09
-7.854044969e-09
-8.048335289e-09
-8.252885016e-09
-8.469482494e-09
-8.672800256e-09
-8.859541259e-09
-9.057380995e-09
-9.279011219e-09
-9.469557669e-09
-9.687766006e-09
-9.800421721e-09
-9.391021266e-09
-4.820065073e-09
-6.642980957e-09
-4.10416713e-09
-3.390129064e-07
-1.164740797e-07
5.112238623e-08
-7.907077491e-09
-1.923316538e-08
8.501681414e-10
2.239860892e-08
1.384652256e-08
3.131051234e-09
-5.674792681e-09
-1.475321007e-08
-2.414046594e-08
-3.196052254e-08
-2.976108438e-08
-2.085812683e-08
1.116287661e-08
-1.039515853e-09
-1.998118128e-08
-3.371561786e-09
-1.831854181e-10
1.099761885e-09
2.702493212e-09
4.379251039e-09
5.998025242e-09
7.392243532e-09
8.711723419e-09
9.926398351e-09
1.100916411e-08
1.204210377e-08
1.295935874e-08
1.381715314e-08
1.462388263e-08
1.536942263e-08
1.60349201e-08
1.669820008e-08
1.728782487e-08
1.781454172e-08
1.833814633e-08
1.885176778e-08
1.933675434e-08
1.977586434e-08
2.023319383e-08
2.06389395e-08
2.10361015e-08
2.140682578e-08
2.179114654e-08
2.214333901e-08
2.250201461e-08
2.286287394e-08
2.321360231e-08
2.355284257e-08
2.389365905e-08
2.426429087e-08
2.460152305e-08
2.497547438e-08
2.519696357e-08
2.471705355e-08
1.933686084e-08
-2.236729284e-09
-2.551190569e-08
-2.459400418e-07
-7.419577222e-07
1.309695954e-06
-7.261539612e-08
-2.209136809e-08
9.907111815e-09
-1.817477798e-08
2.065979816e-08
7.666548513e-09
-3.218091725e-09
-1.430950663e-08
-1.004477079e-08
-3.428930158e-10
1.052096417e-09
-1.437977871e-08
8.005469966e-09
-9.245063491e-09
1.384610357e-08
-8.560798974e-09
-1.462019737e-08
-1.724036268e-08
-1.860061878e-08
-1.600514374e-08
-1.35853884e-08
-1.141903481e-08
-9.449393941e-09
-7.663341465e-09
-6.048479013e-09
-4.567576098e-09
-3.218191097e-09
-1.978992053e-09
-8.359424169e-10
2.168822516e-10
1.175792027e-09
2.077673069e-09
2.900258192e-09
3.657767981e-09
4.369972114e-09
5.04189997e-09
5.668129878e-09
6.2424523e-09
6.795776388e-09
7.301976801e-09
7.782697864e-09
8.2307341e-09
8.663914607e-09
9.068367808e-09
9.466385417e-09
9.855876217e-09
1.023318102e-08
1.060460535e-08
1.097485099e-08
1.136021252e-08
1.174168152e-08
1.217484234e-08
1.26513285e-08
1.311413392e-08
1.187617459e-08
4.797475937e-09
-2.702159258e-09
-1.662860315e-07
-2.033055317e-06
-5.789630018e-07
-3.285086887e-07
1.202540514e-08
2.175599871e-08
-2.141748059e-08
5.865128372e-09
2.148680958e-08
2.079759438e-08
9.362065932e-09
-2.458948715e-09
-1.11632789e-08
-1.007013025e-08
6.978937941e-09
1.944479583e-08
1.198634678e-08
-9.488634865e-09
1.840068848e-08
1.658328434e-08
1.240968204e-08
8.777509863e-09
5.309408222e-09
2.154096131e-09
-6.601318774e-10
-3.178948209e-09
-5.441645077e-09
-7.480990318e-09
-9.329325549e-09
-1.100695782e-08
-1.253587086e-08
-1.393325874e-08
-1.521298002e-08
-1.638543314e-08
-1.746637605e-08
-1.805424154e-08
-1.714012586e-08
-1.629078061e-08
-1.549975038e-08
-1.476541122e-08
-1.408484219e-08
-1.344997916e-08
-1.285848883e-08
-1.230194539e-08
-1.178329394e-08
-1.129714603e-08
-1.084808327e-08
-1.041942172e-08
-1.000421421e-08
-9.60973588e-09
-9.224337515e-09
-8.84308992e-09
-8.455699845e-09
-8.044472544e-09
-7.537717104e-09
-6.742373988e-09
-5.27465067e-09
-3.21959789e-09
-2.244112451e-09
-2.425088894e-09
-8.644082873e-08
-1.234135829e-06
-2.479845235e-06
-3.572240897e-07
-1.908929839e-07
-1.34431166e-08
1.162429856e-08
-1.439876717e-08
-1.856740441e-08
-4.572196215e-09
7.661847185e-09
1.883669393e-08
2.522801014e-08
2.050469164e-08
1.044515307e-09
-2.43840397e-08
1.128556969e-09
-5.466906379e-09
-1.431937845e-08
-1.760587142e-09
4.130854141e-09
8.871396116e-09
1.321787072e-08
1.708510863e-08
2.048188781e-08
2.090675953e-08
1.824873167e-08
1.587085711e-08
1.373212189e-08
1.180154775e-08
1.005193497e-08
8.461225364e-09
7.011101146e-09
5.68522275e-09
4.470241317e-09
3.353702509e-09
2.324975034e-09
1.373396296e-09
4.909530317e-10
-3.273637124e-10
-1.088118989e-09
-1.794728994e-09
-2.455318965e-09
-3.076093859e-09
-3.657761802e-09
-4.202967454e-09
-4.70662443e-09
-5.180860362e-09
-5.634484082e-09
-6.06007007e-09
-6.472077515e-09
-6.87352314e-09
-7.276545916e-09
-7.722451346e-09
-8.313582197e-09
-9.358791172e-09
-1.137941899e-08
-1.462331422e-08
-1.781457341e-08
-1.714466675e-08
-2.588667442e-08
-5.144521311e-07
-4.057341479e-06
-2.17865611e-06
-5.851884523e-07
-1.414318212e-07
2.724093776e-08
2.279442011e-08
-1.926648789e-08
-1.820806934e-08
-4.938211685e-09
5.176264995e-09
8.853011006e-09
5.363016486e-10
-2.114078175e-08
-1.168954528e-08
-1.761964043e-08
1.175995152e-08
-2.367156221e-08
-1.322924025e-08
-5.769121276e-09
4.834771605e-11
5.285495306e-09
9.880165546e-09
1.38531015e-08
1.730852111e-08
2.034583347e-08
2.127434476e-08
1.887674334e-08
1.672492012e-08
1.478491167e-08
1.302912557e-08
1.143483349e-08
9.982243829e-09
8.65535297e-09
7.439362288e-09
6.321966992e-09
5.292008895e-09
4.340048826e-09
3.458912426e-09
2.640516018e-09
1.880205511e-09
1.170353304e-09
5.052368352e-10
-1.182571261e-10
-7.049342557e-10
-1.253582338e-09
-1.769587202e-09
-2.257746504e-09
-2.714270488e-09
-3.153339562e-09
-3.58161003e-09
-4.014660803e-09
-4.505245671e-09
-5.187324743e-09
-6.417909595e-09
-8.686332749e-09
-1.215534013e-08
-1.559529945e-08
-1.736359221e-08
-8.330948312e-08
-2.699336073e-07
-3.579765908e-06
-5.882644601e-06
-1.489821615e-06
-1.200669011e-07
2.655922506e-08
-1.99042441e-09
-2.149959628e-09
-2.759190584e-08
-1.240154063e-08
-3.253238591e-09
-2.217081246e-09
-1.362495077e-08
-2.013876142e-08
3.060260988e-09
-2.647564747e-08
2.388278166e-08
-1.349967885e-08
-2.130552041e-08
-1.251611127e-08
-5.721234582e-09
3.975956177e-10
5.758407324e-09
1.034987651e-08
1.429223307e-08
1.771730582e-08
2.072687727e-08
2.090659293e-08
1.853334289e-08
1.640411568e-08
1.448524141e-08
1.274926112e-08
1.117274569e-08
9.736547274e-09
8.42425819e-09
7.22199581e-09
6.117626806e-09
5.100006569e-09
4.16042505e-09
3.289203732e-09
2.480596433e-09
1.727389423e-09
1.023419855e-09
3.64711171e-10
-2.545447545e-10
-8.3638322e-10
-1.383809912e-09
-1.902764534e-09
-2.391614393e-09
-2.857965838e-09
-3.313517093e-09
-3.780361941e-09
-4.325784012e-09
-5.113279764e-09
-6.500976335e-09
-8.905323141e-09
-1.234931651e-08
-1.56527708e-08
-1.719647369e-08
9.804789469e-08
-1.415013895e-07
-2.134612973e-06
-9.653816589e-06
-4.941201551e-06
-3.602320634e-07
-1.345492888e-07
-3.606330368e-08
2.004760907e-09
-1.03153753e-08
-2.129414961e-08
-1.145021961e-08
-1.270382694e-08
-2.674594016e-08
-6.022397455e-09
1.604345362e-08
-1.514833803e-08
1.858077346e-08
-4.229203724e-09
-2.332285707e-08
-1.885648385e-08
-1.119032627e-08
-4.22431806e-09
1.933050461e-09
7.195579319e-09
1.166912052e-08
1.550975635e-08
1.885020503e-08
2.178883404e-08
1.990669769e-08
1.758616628e-08
1.550301017e-08
1.362503889e-08
1.192470221e-08
1.038029041e-08
8.973329443e-09
7.687900504e-09
6.510707533e-09
5.428251734e-09
4.431310208e-09
3.508228776e-09
2.65302038e-09
1.85834035e-09
1.116917314e-09
4.252161987e-10
-2.240239296e-10
-8.332693386e-10
-1.404756513e-09
-1.947904896e-09
-2.463538601e-09
-2.955634886e-09
-3.438775351e-09
-3.942059171e-09
-4.548395684e-09
-5.448984594e-09
-6.97766867e-09
-9.474209722e-09
-1.284224468e-08
-1.597480666e-08
-1.719616365e-08
6.505711043e-08
-1.13770955e-05
-1.004626419e-06
-1.055251435e-05
-1.325247239e-05
-1.775551907e-06
7.757916149e-07
1.02136401e-07
-1.591418625e-08
7.875522027e-10
-2.766944539e-08
-1.924208973e-08
-2.278148785e-08
-1.744156396e-08
7.315739716e-09
2.836691656e-08
-4.127982581e-09
8.019040347e-09
4.943906166e-09
-1.574927035e-08
-2.531033271e-08
-1.684264581e-08
-9.06488998e-09
-2.082764348e-09
3.917124402e-09
8.990092464e-09
1.329792741e-08
1.700252536e-08
2.023115018e-08
2.122165831e-08
1.870314972e-08
1.645192061e-08
1.44301992e-08
1.260636727e-08
1.095630698e-08
9.457764317e-09
8.091825022e-09
6.843309708e-09
5.696982683e-09
4.643293253e-09
3.669454104e-09
2.76879713e-09
1.933597252e-09
1.156038501e-09
4.330439329e-10
-2.453483324e-10
-8.811639829e-10
-1.47723705e-09
-2.042413518e-09
-2.578735635e-09
-3.092744565e-09
-3.603144853e-09
-4.149264052e-09
-4.825185048e-09
-5.837564377e-09
-7.492458513e-09
-1.005406373e-08
-1.333277958e-08
-1.63000525e-08
-1.707755618e-08
5.038563951e-07
-6.638171268e-09
-8.302300881e-07
-1.109183031e-05
-2.947160704e-05
-6.844937061e-06
-1.784910609e-06
7.520183077e-09
3.675558001e-08
-1.043358106e-08
7.585229064e-09
-2.296453395e-08
-2.344436316e-08
-6.381502023e-09
1.892899263e-08
2.062578628e-08
5.831515521e-09
-1.752233179e-09
1.371914955e-08
-8.282705525e-09
-2.035568209e-08
-2.265272061e-08
-1.415581046e-08
-6.376020329e-09
3.987445606e-10
6.139554811e-09
1.098223186e-08
1.510222962e-08
1.865387095e-08
2.175529189e-08
1.981050005e-08
1.738552697e-08
1.521615348e-08
1.326613399e-08
1.150731631e-08
9.914173106e-09
8.46603212e-09
7.145550562e-09
5.936586104e-09
4.826946187e-09
3.804611525e-09
2.861072475e-09
1.988498084e-09
1.178451238e-09
4.255231046e-10
-2.801124818e-10
-9.405264689e-10
-1.559712141e-09
-2.143966971e-09
-2.698656742e-09
-3.23425527e-09
-3.772310045e-09
-4.364544444e-09
-5.11776799e-09
-6.237053121e-09
-8.00062069e-09
-1.060185895e-08
-1.378187469e-08
-1.65837347e-08
-1.670279916e-08
-2.543543791e-07
-9.943897556e-08
-8.641736737e-07
-1.06999023e-05
-5.196435489e-05
-2.21475816e-05
1.574503055e-07
1.916736508e-06
1.769537073e-07
-2.719328933e-08
-7.865661126e-10
-8.583062502e-09
-1.6349847e-08
9.173658299e-10
2.706700653e-08
1.255842008e-08
1.33107563e-08
-9.483746214e-09
2.112259727e-08
-1.609320925e-09
-1.429122918e-08
-2.393529452e-08
-1.922995237e-08
-1.078820781e-08
-3.291853601e-09
3.128749646e-09
8.549484553e-09
1.313119397e-08
1.704177681e-08
2.042265426e-08
2.091706133e-08
1.831237153e-08
1.599328203e-08
1.391692399e-08
1.204911625e-08
1.036130738e-08
8.830608184e-09
7.437641844e-09
6.166230061e-09
5.001209247e-09
3.931759113e-09
2.946471628e-09
2.036823282e-09
1.193874192e-09
4.100819356e-10
-3.21239476e-10
-1.004682215e-09
-1.645033579e-09
-2.246942462e-09
-2.820475941e-09
-3.379318948e-09
-3.947875301e-09
-4.58844846e-09
-5.421096907e-09
-6.642141754e-09
-8.497469244e-09
-1.111408301e-08
-1.418758409e-08
-1.681807649e-08
-1.607988015e-08
-1.801466275e-07
-4.068151399e-07
9.327090206e-06
-9.582125227e-06
-8.274738272e-05
-6.10468851e-05
2.208665785e-06
6.604314478e-06
1.111683243e-06
5.855972998e-08
-1.993640556e-08
2.420996339e-09
-1.266312546e-08
3.892940613e-09
2.925974704e-08
8.73619037e-09
1.686447647e-08
-1.377543144e-08
2.593710545e-08
3.295738973e-09
-9.448035335e-09
-1.917867114e-08
-2.376878788e-08
-1.493596153e-08
-6.908405524e-09
9.181401903e-11
6.05995013e-09