/*--------------------------------*- C++ -*----------------------------------*\
  =========                 |
  \\      /  F ield         | OpenFOAM: The Open Source CFD Toolbox
   \\    /   O peration     | Website:  https://openfoam.org
    \\  /    A nd           | Version:  10
     \\/     M anipulation  |
\*---------------------------------------------------------------------------*/
FoamFile
{
    format      ascii;
    class       volScalarField;
    location    "0.02498436188";
    object      ddt0(rho,H2);
}
// * * * * * * * * * * * * * * * * * * * * * * * * * * * * * * * * * * * * * //

dimensions      [1 -3 -1 0 0 0 0];

internalField   nonuniform List<scalar> 
5170
(
-2.77969962e-10
-2.789839221e-10
-2.786497345e-10
-2.691115742e-10
-6.445329401e-12
-3.558610855e-10
-3.563162795e-10
-3.571183942e-10
-3.556688373e-10
-2.82504833e-10
-3.618819875e-10
-3.628264445e-10
-3.6448379e-10
-3.678885279e-10
-3.598975362e-10
-3.510608664e-10
-3.523699821e-10
-3.544590612e-10
-3.585287553e-10
-3.663192432e-10
-3.385520532e-10
-3.401341275e-10
-3.426002988e-10
-3.46188406e-10
-3.551587157e-10
-3.277019728e-10
-3.290387976e-10
-3.311345833e-10
-3.354135316e-10
-3.428210444e-10
-3.208760201e-10
-3.220636923e-10
-3.236294601e-10
-3.271087324e-10
-3.334019976e-10
-3.186169311e-10
-3.202432169e-10
-3.218130648e-10
-3.227755572e-10
-3.285302178e-10
-3.210905079e-10
-3.222023592e-10
-3.232678368e-10
-3.238310173e-10
-3.291042377e-10
-3.271303891e-10
-3.278364233e-10
-3.267164149e-10
-3.291383461e-10
-3.345832789e-10
-3.340054805e-10
-3.351581356e-10
-3.347316282e-10
-3.359421251e-10
-3.419509123e-10
-3.407128188e-10
-3.421229169e-10
-3.444167995e-10
-3.431263332e-10
-3.491355836e-10
-3.473477958e-10
-3.485166171e-10
-3.50930443e-10
-3.502053103e-10
-3.555087186e-10
-3.526150435e-10
-3.533382781e-10
-3.544073913e-10
-3.553945298e-10
-3.596407422e-10
-3.551875118e-10
-3.559524885e-10
-3.560162105e-10
-3.577807456e-10
-3.608320423e-10
-3.550734806e-10
-3.563624617e-10
-3.561397996e-10
-3.571226842e-10
-3.596920466e-10
-3.530364484e-10
-3.544720596e-10
-3.550006935e-10
-3.54384916e-10
-3.568691664e-10
-3.495482016e-10
-3.508643713e-10
-3.52355798e-10
-3.508973942e-10
-3.516433846e-10
-3.45388206e-10
-3.424096417e-10
-3.27084056e-10
-2.406995098e-10
3.608274636e-10
-1.338242493e-10
2.032655103e-09
1.669361408e-08
6.192737042e-08
1.899593436e-07
-5.802811261e-05
-2.845656931e-05
-6.275572821e-05
-1.506488665e-05
-3.955235896e-06
-0.0002101930088
0.0002492819333
0.0002450518946
0.0001537876748
-0.0006733951847
-0.0001858123345
-2.604733203e-06
6.21743192e-07
-2.043197449e-05
0.0001166896847
-4.053754626e-05
3.809173109e-05
6.241102013e-05
-0.0001303790127
-2.081866419e-05
0.0001339264849
2.22186914e-05
6.067556513e-05
-8.602341623e-05
-4.686840529e-05
6.352073931e-05
1.812588331e-05
-1.027079933e-05
-7.425149681e-05
-7.49486755e-05
-3.010149473e-05
2.342738461e-05
6.318263882e-05
-5.592177424e-05
-0.0001567081334
-0.0001625857537
-3.067580681e-05
5.719505442e-07
-0.0001039874064
-3.303749533e-05
-4.378866152e-05
-0.0001355305751
-0.0001034231686
-0.0002862209956
-1.393979173e-05
-1.724276989e-05
-2.097827824e-05
-1.165876421e-05
2.176451859e-06
1.854447943e-05
3.034223192e-05
-1.173788159e-06
3.284217599e-06
0.0001205707731
-7.272928091e-06
-5.873333185e-06
-1.266933102e-05
-5.803929397e-06
4.244341338e-06
-2.16230318e-05
-2.172449929e-05
-1.262152232e-05
-2.243688207e-06
-1.240858354e-05
-2.641862177e-05
-2.878037039e-05
-2.155783884e-05
-1.291200203e-05
-2.534705441e-05
-2.979074481e-05
-3.145938616e-05
-2.689702013e-05
-3.008011078e-05
-2.492708534e-05
-2.894310475e-05
-3.164218225e-05
-2.555138415e-05
-2.965007011e-05
-2.897302893e-05
-2.091492296e-05
-3.325473246e-05
-2.454603993e-05
-2.877568379e-05
-3.535039584e-05
-5.395718815e-05
-1.948219443e-05
-2.688924128e-05
-2.773461028e-05
-1.962342157e-05
9.11077928e-05
-5.948499174e-05
-3.235348141e-05
-2.852261057e-05
-5.50707803e-05
9.26260884e-05
5.113855315e-06
-5.899014172e-05
-3.516144536e-05
1.406838605e-05
4.327236462e-05
-2.404044096e-09
5.992976488e-08
5.936090287e-07
4.827225133e-06
0.0001417711378
-1.037044931e-07
-1.012289986e-06
-1.341632021e-07
-1.39323568e-06
-0.0005672928965
6.187766369e-08
-1.510961843e-06
-1.092957787e-05
-6.720737275e-05
-0.0007980536545
2.022636259e-06
2.300646007e-05
0.0001502372117
0.0003986872049
-0.0004312454843
-1.877653332e-07
1.885262455e-05
0.0001257323252
0.000337018494
0.0004281155332
-1.345070301e-05
-8.316843664e-05
-0.0003107324847
-0.0002706101157
-0.000262362383
-7.432747512e-06
-8.83877637e-05
-0.0002653571279
-0.0008443984636
-0.0007588956609
3.729442403e-05
9.309419054e-05
-1.374983783e-05
-0.0004679839697
-0.0009567100978
8.880031918e-05
0.0001998123442
0.0001959418865
0.0001491941795
-0.0002908113684
-3.703684201e-05
1.526778025e-05
4.708912424e-05
-0.0001959670806
-1.117136874e-05
-0.0002369898151
-0.0005912514059
-0.0007333204219
-0.0004472396167
0.0001676956329
-0.002091263064
-0.001772398673
-0.001460519887
-0.001190414044
-0.0004713369685
-0.000974460663
-0.0007021203619
-0.0004997579379
-0.0004090833936
-0.000461725157
0.0004768007176
0.0005582340861
0.001066927567
0.001181949994
0.0007429660452
0.001902446569
0.001748940115
0.002053767095
0.001613571181
0.0008820159105
0.002345509772
0.002073935298
0.00223239947
0.002318730068
0.002357517327
-5.657178103e-05
2.783464136e-05
0.0003854997897
0.001186006181
0.001898954775
0.001426966836
0.001724680886
0.002167752642
0.002692838969
0.003216423165
0.004375794485
0.005073051128
0.006360791552
0.008790496936
0.01250824524
0.007319124223
0.009216221502
0.01252900095
0.01826646959
0.02661319739
0.01319015487
0.01574283169
0.02132058126
0.02925800496
0.03831807173
0.02585125035
0.02801936258
0.03271229361
0.03828417808
0.0443807486
0.0363024842
0.03762368375
0.03970064741
0.04242820769
0.04548530536
0.04101047315
0.04158736201
0.04245480449
0.04358897351
0.04445367383
0.04149733974
0.0417307268
0.04184887799
0.04193059377
0.04233140652
0.03865888143
0.03863487865
0.0386150024
0.03841450395
0.03827364279
0.03471375009
0.0347187511
0.03455150302
0.03426143605
0.03405902824
0.03029272835
0.03008890712
0.02997938401
0.02967375499
0.02924429981
0.02548905505
0.02534646446
0.02521337377
0.02491401231
0.02449203225
0.02080783307
0.02076755357
0.02059784776
0.02033234715
0.02001627328
0.01661126503
0.01652800776
0.01640710956
0.01618068481
0.0159242297
0.01289821218
0.01285598194
0.01274265122
0.01258508471
0.01233377355
0.00978298461
0.009732373254
0.009653654612
0.009537825543
0.009356237355
0.007179665455
0.007152340146
0.007101196164
0.007011588212
0.00688391617
0.00508521007
0.005068162072
0.005029974928
0.004970334065
0.004893261455
0.003452711679
0.003440305331
0.003415147255
0.003380396882
0.003325242047
0.002236593286
0.002231321695
0.002215880037
0.002193145482
0.002161932727
0.001381611015
0.001379118748
0.001369868112
0.001357470052
0.001337819034
0.0008143004177
0.0008101704866
0.0008060566685
0.0007997200653
0.0007904984024
0.0004531236041
0.0004533135187
0.0004512993012
0.0004466401799
0.000442985226
0.0002400489835
0.0002400909838
0.0002388938739
0.0002370501251
0.0002348282871
0.0001202987383
0.0001198831151
0.0001193277102
0.0001189131368
0.000117140622
5.57031411e-05
5.639677164e-05
5.603739464e-05
5.575281862e-05
5.458811617e-05
2.423879738e-05
2.439263179e-05
2.431068558e-05
2.431515055e-05
2.332320801e-05
9.184637913e-06
9.6341412e-06
9.553914091e-06
9.428109886e-06
9.247826557e-06
3.140538068e-06
3.085287719e-06
3.101955103e-06
3.128019633e-06
3.330517919e-06
4.470796021e-07
6.912604481e-07
6.868997517e-07
6.669348472e-07
6.757316861e-07
-2.899025736e-07
-1.013377179e-07
-6.318100197e-08
-1.181203244e-07
-3.498860432e-07
-4.077620933e-07
-1.978899284e-07
-2.326482105e-07
-2.040336647e-07
-6.685834097e-07
-2.305832607e-07
-1.53072015e-07
-1.353935686e-07
-2.235929001e-07
-2.762745023e-07
-1.188030354e-08
-1.123485818e-07
-5.288765847e-08
-5.690300957e-08
-3.707986611e-08
9.836057644e-08
1.216498714e-08
-4.08593462e-08
2.440160944e-08
4.038239007e-07
-2.078551052e-07
1.29476392e-07
1.847900036e-07
-6.101022376e-08
3.21103058e-07
1.898429576e-07
8.07302984e-08
1.052424478e-07
1.411550493e-07
-1.803982954e-07
-9.56904092e-08
2.691923963e-07
5.5459327e-08
1.784203148e-07
1.087482503e-07
-2.560709762e-08
2.124753298e-07
1.565770988e-07
1.193753313e-07
1.214364317e-07
2.350885444e-07
1.201269445e-07
1.47815164e-07
7.173263559e-08
5.523895778e-07
1.905405461e-07
1.163066318e-07
1.2800889e-07
7.976374329e-08
4.976714804e-07
1.45618829e-07
1.051066474e-07
9.182502604e-08
8.293151238e-08
4.342258184e-07
8.086387664e-08
1.075021709e-07
1.000086399e-07
5.739214055e-08
3.51016912e-07
1.191215417e-07
1.231786476e-07
1.201663869e-07
7.557911198e-08
3.114022352e-07
2.305721358e-07
1.94661082e-07
1.544313999e-07
1.472119659e-07
3.722369134e-07
3.122553155e-07
2.921846241e-07
2.59750356e-07
2.507534026e-07
6.310720308e-07
3.730693913e-07
4.196526901e-07
4.18907292e-07
3.429235121e-07
6.727018512e-07
5.437613692e-07
4.707409669e-07
5.364945483e-07
4.845124624e-07
5.554879024e-07
5.249677434e-07
5.793437298e-07
5.635808593e-07
5.487344223e-07
5.948695059e-07
5.515258612e-07
5.506202207e-07
5.413762866e-07
5.557404557e-07
5.899286635e-07
4.62428328e-07
4.978196051e-07
4.781448367e-07
4.860640216e-07
4.820423916e-07
3.896633448e-07
3.979754773e-07
3.806493415e-07
4.04170425e-07
3.844435801e-07
3.054460821e-07
3.244362666e-07
3.199358238e-07
3.215498216e-07
3.049769153e-07
-0.00189429264
0.002135607693
0.0004721612487
0.002210057765
-0.0001040873594
0.0001976753735
-0.001099460342
-0.001046692074
-0.0004296654795
3.368690978e-05
0.0003768304785
-0.000201074225
0.001546874305
0.0009966983811
0.001475690066
-0.001424385782
0.004100185935
0.0034437979
0.0167951252
0.03309540797
0.04528121303
0.04839430617
0.04696005599
0.04580125675
0.04114309979
0.03788888171
0.03330987882
0.02906810169
0.02434391596
0.01968376107
0.01563654668
0.01229041452
0.009296905232
0.006855707343
0.004838563147
0.003302955535
0.002145501896
0.001334443216
0.0007802111367
0.0004383283267
0.000234137671
0.0001191754334
5.779825405e-05
2.670055018e-05
1.018534467e-05
2.203314065e-06
4.79311017e-07
7.249950341e-07
1.272202681e-06
3.111262006e-07
-2.283639703e-07
-1.514229167e-06
-7.428691978e-07
1.143877295e-06
9.372076995e-08
2.530684098e-07
-1.308205921e-06
-1.194038349e-06
-1.072112866e-06
-7.730327676e-07
-5.428753791e-07
-4.557887648e-07
-9.824972725e-07
-5.235426515e-07
3.478061472e-07
4.427626295e-07
3.743781757e-07
5.068019484e-07
4.253914979e-07
3.978365016e-07
-0.0009373848673
-0.004220163944
0.0002374704776
-4.863804861e-05
5.314870946e-06
-0.001365285963
-0.00554597011
0.001755556775
2.377728215e-05
2.575245591e-05
-0.001965235199
-0.003554646883
0.01058254929
0.0001356801579
0.0002201619002
-0.00102291765
-0.002375815789
-0.0006229841894
-0.001380643913
9.536934478e-05
-0.0007660774619
-0.0004456769329
-0.0349367465
-0.003594189291
-0.0002096294349
-0.0004773144744
-0.001945742119
-0.005377178176
-0.003926011743
-0.0004453235216
-0.001429150265
-0.0002447851445
0.00468735111
-0.006333547524
0.00176521619
-0.0003338516993
0.0001160899715
0.01055185981
0.009588451502
0.002486953769
-8.628688545e-05
0.0004786056382
-0.0007071711538
-0.04934527936
-0.0007576588277
0.0002740991753
-0.0002944165289
-0.0001850223537
0.007922781275
0.00194549185
0.000595080179
-0.0001196996424
0.003599844045
-0.02099747461
-0.001886634802
0.0003354727865
0.0001972677372
0.0008701923007
0.006633005609
0.02452460896
0.0006106693354
-0.001027952183
-0.001384574039
0.004313044854
-0.001420887579
0.000366245102
0.001990301286
0.0008904967818
-0.001251523275
0.0002965651361
0.0008927661009
0.002822798929
0.001813311606
-0.0007094313639
0.03594197049
0.0005805515285
0.001195736078
0.004577271628
0.004772601554
0.02835213762
0.003505483785
0.004876784908
0.004769625012
0.004285395466
0.03629058955
0.004939799186
0.007497055736
0.01160688478
0.01766425572
0.04449276578
0.02026791637
0.02784580098
0.03497774989
0.04272259718
0.05333103822
0.04224110482
0.06117013851
0.09238502342
0.1354233164
-0.02112694231
0.05308536023
0.0656491071
0.07713051964
0.08690678803
0.06876012075
0.05377267784
0.06020159411
0.06337041479
0.06149424722
0.04942037595
0.05011517585
0.05271122385
0.05263242855
0.04946145869
0.04313171208
0.04611798787
0.04642871794
0.04527407841
0.04259876276
0.03866935822
0.04225721007
0.04163727579
0.04020704922
0.03791083126
0.03491767432
0.03785992962
0.03699646174
0.03553100786
0.03348246742
0.03095103921
0.03341215337
0.03245237163
0.03105334058
0.02919234409
0.02698046399
0.02865656839
0.02777119617
0.02646057499
0.02481529582
0.02289365891
0.02393890057
0.02312871998
0.02197753854
0.02055303146
0.01893913638
0.01949262117
0.01878758004
0.01781631826
0.01664090938
0.0153245709
0.01549374434
0.01492124595
0.0141427926
0.0132108914
0.01217508056
0.01203259167
0.01160447853
0.0110079501
0.01029371709
0.009505131831
0.009135674076
0.008819302661
0.008379030545
0.007849100105
0.007264054372
0.006733927183
0.006515413499
0.006199114764
0.005820328076
0.005395802793
0.004792419604
0.004643632078
0.004428695872
0.004164435767
0.003868438722
0.003268293162
0.003176331519
0.003034952846
0.002859811955
0.002660599471
0.002130689223
0.002075941832
0.001988802123
0.001876902454
0.00174966633
0.001323907437
0.001294266755
0.001242647233
0.001175386292
0.001097253287
0.0007839468249
0.000768348116
0.0007393183025
0.0007009232345
0.0006552743968
0.0004407679747
0.0004334481295
0.0004182137524
0.0003971860568
0.0003720463369
0.0002348751539
0.0002317817806
0.0002243837263
0.0002133551662
0.0002002799265
0.0001180778883
0.0001171192276
0.0001136517786
0.0001082977432
0.0001018135555
5.561980683e-05
5.555471438e-05
5.399422884e-05
5.163690655e-05
4.852923473e-05
2.420899123e-05
2.443763036e-05
2.382340167e-05
2.278878408e-05
2.147535315e-05
9.598853989e-06
9.712409927e-06
9.500255246e-06
9.106345276e-06
8.571535425e-06
3.292254607e-06
3.298786005e-06
3.185111957e-06
3.122994883e-06
2.86820647e-06
7.25111875e-07
7.898510902e-07
6.90538947e-07
7.487181296e-07
6.261868049e-07
-1.651855893e-07
-5.38207491e-08
-1.038180641e-07
-4.433300546e-08
-1.141311642e-07
-3.680877731e-07
-2.245620107e-07
-2.35485613e-07
-2.349710027e-07
-2.302247278e-07
-2.12915045e-07
-1.920694876e-07
-1.537241506e-07
-2.100383064e-07
-1.636108726e-07
-7.008003848e-08
-6.998340383e-08
-8.707322737e-08
-9.380931773e-08
-9.371279739e-08
1.336775812e-07
6.20143623e-10
-1.14262595e-08
-1.014317218e-08
-2.549202838e-08
1.255251116e-07
6.110267456e-08
3.252261642e-08
5.355015577e-08
1.300127507e-08
1.076025994e-08
9.064308524e-08
8.632971715e-08
6.39540719e-08
6.31811299e-08
1.222591125e-07
1.17250567e-07
9.932781202e-08
1.002006452e-07
7.775763097e-08
1.190846993e-07
1.349630878e-07
1.140077036e-07
1.170808576e-07
9.564215547e-08
2.592687684e-07
1.215237905e-07
1.311554295e-07
1.164542375e-07
1.071368114e-07
2.371994511e-07
1.176148062e-07
1.244956716e-07
1.114684935e-07
1.085780894e-07
2.067104218e-07
1.058577444e-07
1.095923416e-07
1.086170837e-07
9.936474204e-08
1.679265521e-07
1.07256846e-07
1.049554923e-07
1.041508418e-07
1.103244429e-07
1.805999858e-07
1.222110039e-07
1.314990262e-07
1.356570034e-07
1.351922376e-07
2.473209494e-07
1.745843856e-07
2.056222699e-07
1.94098479e-07
2.018653396e-07
3.957612318e-07
2.834697052e-07
2.917383729e-07
2.980300954e-07
2.943997728e-07
4.815969473e-07
3.992950364e-07
4.04241765e-07
4.040687574e-07
4.02066322e-07
5.155054409e-07
5.01153957e-07
4.988777384e-07
4.959042594e-07
4.918175426e-07
5.662296136e-07
5.538219309e-07
5.510506436e-07
5.440832493e-07
5.39715168e-07
5.607531059e-07
5.476941082e-07
5.446263391e-07
5.427867985e-07
5.361846296e-07
4.848032193e-07
4.933869745e-07
4.839002611e-07
4.897015157e-07
4.829958158e-07
3.988075547e-07
4.082820158e-07
4.1023648e-07
4.163872776e-07
4.173398841e-07
3.247137458e-07
3.366773369e-07
3.416617655e-07
3.494509158e-07
3.548688718e-07
-2.879469568e-06
-5.584423744e-06
-1.280515718e-06
-3.006731714e-07
-1.011195501e-07
-4.140188967e-08
-1.892786541e-08
-1.057909519e-08
-7.738200841e-09
-6.973637924e-09
-6.847836779e-09
-6.870865726e-09
-6.902274569e-09
-6.915271469e-09
-6.918322025e-09
-6.918644993e-09
-6.91768222e-09
-6.916444394e-09
-6.91662159e-09
-6.916689233e-09
-6.916247646e-09
-6.915627519e-09
-6.915145472e-09
-6.914890537e-09
-6.915016944e-09
-6.915325714e-09
-6.915789578e-09
-6.916375445e-09
-6.917051748e-09
-6.917805416e-09
-6.918588382e-09
-6.919414843e-09
-6.92039968e-09
-6.921512148e-09
-6.922667659e-09
-6.923799411e-09
-6.924989297e-09
-6.926236916e-09
-6.927519982e-09
-6.928837514e-09
-6.930202025e-09
-6.931536034e-09
-6.932918531e-09
-6.934237512e-09
-6.935519002e-09
-6.936781287e-09
-6.938030259e-09
-6.939212067e-09
-6.940281454e-09
-6.941304073e-09
-6.942229358e-09
-6.94305012e-09
-6.943768439e-09
-6.944477774e-09
-6.945658173e-09
-6.949690066e-09
-6.963681606e-09
-6.99631974e-09
-7.031905077e-09
-7.093093222e-09
-1.219805794e-05
-1.588225428e-05
-2.584365283e-06
-4.565891604e-07
-1.3340804e-07
-5.273124275e-08
-2.587119482e-08
-1.478582883e-08
-1.109402515e-08
-1.024862875e-08
-1.031154318e-08
-1.053108954e-08
-1.069882687e-08
-1.079370853e-08
-1.083845983e-08
-1.085271756e-08
-1.08670151e-08
-1.088849144e-08
-1.090494592e-08
-1.091419857e-08
-1.091873777e-08
-1.092134212e-08
-1.09225137e-08
-1.092335487e-08
-1.092500002e-08
-1.092689948e-08
-1.09289503e-08
-1.093163428e-08
-1.093429885e-08
-1.093757531e-08
-1.094080207e-08
-1.094435762e-08
-1.094876026e-08
-1.095360136e-08
-1.095781776e-08
-1.096135128e-08
-1.096620472e-08
-1.097144405e-08
-1.097593302e-08
-1.09801338e-08
-1.098543343e-08
-1.098972643e-08
-1.099452803e-08
-1.099869888e-08
-1.10038517e-08
-1.100858092e-08
-1.10125917e-08
-1.101657539e-08
-1.101921886e-08
-1.10225823e-08
-1.102540001e-08
-1.102781551e-08
-1.102989975e-08
-1.103231749e-08
-1.103578691e-08
-1.104849224e-08
-1.10930719e-08
-1.124331986e-08
-1.163448582e-08
-1.209742601e-08
-2.519049057e-05
-2.226571458e-05
-1.445714421e-06
-1.472030031e-07
-4.632136713e-08
-2.085283718e-08
-1.042935292e-08
-5.644803683e-09
-4.671585345e-09
-5.295124931e-09
-6.263032523e-09
-7.052987348e-09
-7.588866133e-09
-7.901443744e-09
-8.068519416e-09
-8.145643744e-09
-8.207115171e-09
-8.281555515e-09
-8.334203662e-09
-8.367698855e-09
-8.388385877e-09
-8.401944808e-09
-8.413188657e-09
-8.42411141e-09
-8.435561997e-09
-8.447039357e-09
-8.458251098e-09
-8.469646604e-09
-8.480504985e-09
-8.491170429e-09
-8.501910447e-09
-8.512489442e-09
-8.523028865e-09
-8.533157711e-09
-8.542966724e-09
-8.55308817e-09
-8.563145146e-09
-8.572721851e-09
-8.581981944e-09
-8.591277263e-09
-8.600351265e-09
-8.608936624e-09
-8.617672407e-09
-8.625585527e-09
-8.633771416e-09
-8.641398637e-09
-8.648582436e-09
-8.655041772e-09
-8.660139291e-09
-8.665631923e-09
-8.670563823e-09
-8.674551743e-09
-8.678185569e-09
-8.681702344e-09
-8.686299394e-09
-8.699537292e-09
-8.74111491e-09
-8.861818894e-09
-9.098453864e-09
-9.271705297e-09
-7.979177186e-05
-6.00487699e-05
-1.656881331e-06
6.217238364e-07
1.213600841e-07
3.365542913e-08
1.710572908e-08
1.154525348e-08
8.036316885e-09
4.930669745e-09
2.52720136e-09
8.683285131e-10
-1.810847642e-10
-8.002666258e-10
-1.155997808e-09
-1.350449358e-09
-1.498921836e-09
-1.642057321e-09
-1.739259135e-09
-1.802100374e-09
-1.84355368e-09
-1.874137416e-09
-1.900688437e-09
-1.925364328e-09
-1.948630299e-09
-1.970396095e-09
-1.990782907e-09
-2.010005606e-09
-2.0281342e-09
-2.04523042e-09
-2.061381256e-09
-2.076638567e-09
-2.091101784e-09
-2.104747724e-09
-2.117572648e-09
-2.129920413e-09
-2.141760325e-09
-2.153065929e-09
-2.163914269e-09
-2.174616466e-09
-2.184894709e-09
-2.194346193e-09
-2.203573099e-09
-2.212149258e-09
-2.22046668e-09
-2.228094491e-09
-2.235262028e-09
-2.241609921e-09
-2.247308501e-09
-2.252470207e-09
-2.257063583e-09
-2.260675707e-09
-2.263851712e-09
-2.266281966e-09
-2.269140383e-09
-2.272671979e-09
-2.277862904e-09
-2.266475904e-09
-2.154371122e-09
-1.948779211e-09
-9.192681161e-05
-0.0001114415938
-5.81679491e-05
-1.144221128e-06
3.828110839e-07
1.358632136e-07
7.34396694e-08
4.729486373e-08
3.128255967e-08
2.058828373e-08
1.376093381e-08
9.729014299e-09
7.478464411e-09
6.245882806e-09
5.583024109e-09
5.221907388e-09
4.975029799e-09
4.779154636e-09
4.657693586e-09
4.583451781e-09
4.536907968e-09
4.503340955e-09
4.475015841e-09
4.449253411e-09
4.425723261e-09
4.404175654e-09
4.384479192e-09
4.366330214e-09
4.349640415e-09
4.334397938e-09
4.320293495e-09
4.307433839e-09
4.295720412e-09
4.285020048e-09
4.275256729e-09
4.266305061e-09
4.257973011e-09
4.250075894e-09
4.242517925e-09
4.235155078e-09
4.228153129e-09
4.221605692e-09
4.215268901e-09
4.209391254e-09
4.203748465e-09
4.198614706e-09
4.193603534e-09
4.189059035e-09
4.184799989e-09
4.181242273e-09
4.17804196e-09
4.175731192e-09
4.173725461e-09
4.172831205e-09
4.172917648e-09
4.179170479e-09
4.204778597e-09
4.301961798e-09
4.570846555e-09
4.883781538e-09
-0.0001496694841
-0.0001230183331
-0.0001582479555
-3.918602614e-05
1.719586399e-06
8.199119012e-07
3.091802712e-07
1.54136632e-07
8.744464155e-08
5.102055464e-08
3.049559846e-08
1.950188265e-08
1.399478577e-08
1.137432748e-08
1.013505676e-08
9.554488141e-09
9.225446344e-09
8.998135802e-09
8.863267712e-09
8.78756012e-09
8.74429986e-09
8.716290703e-09
8.694577666e-09
8.675988971e-09
8.65921064e-09
8.644186372e-09
8.631073129e-09
8.619474983e-09
8.609055777e-09
8.600193778e-09
8.592387737e-09
8.58564973e-09
8.579890915e-09
8.575054667e-09
8.570982871e-09
8.567496746e-09
8.564552861e-09
8.561862309e-09
8.559451677e-09
8.557141805e-09
8.554913264e-09
8.552751167e-09
8.550555952e-09
8.548366723e-09
8.546124767e-09
8.543914022e-09
8.541572108e-09
8.539287818e-09
8.536943584e-09
8.534789376e-09
8.532737439e-09
8.531354347e-09
8.529930186e-09
8.529668525e-09
8.531124287e-09
8.539972666e-09
8.571516678e-09
8.670943459e-09
8.89713163e-09
9.125771523e-09
0.0002500503578
-7.707875096e-05
-0.0002304626292
-0.0002162065993
-1.467497398e-05
3.681955148e-06
1.01507096e-06
4.010741191e-07
2.020970865e-07
1.082224104e-07
5.858120031e-08
3.300327452e-08
2.070172479e-08
1.52266107e-08
1.29109805e-08
1.192408242e-08
1.144849676e-08
1.116967607e-08
1.101278563e-08
1.092879995e-08
1.088688399e-08
1.086296039e-08
1.084712651e-08
1.083544374e-08
1.082597999e-08
1.081783523e-08
1.08108272e-08
1.080514714e-08
1.080089934e-08
1.079751465e-08
1.079522785e-08
1.079385038e-08
1.079320058e-08
1.079324031e-08
1.079403908e-08
1.079498188e-08
1.079658453e-08
1.07981699e-08
1.079985662e-08
1.080155642e-08
1.080306121e-08
1.080444265e-08
1.080551091e-08
1.080619622e-08
1.080646672e-08
1.080650122e-08
1.080600481e-08
1.080526066e-08
1.08041357e-08
1.08027311e-08
1.080125113e-08
1.079975294e-08
1.079825794e-08
1.079747875e-08
1.0798283e-08
1.080417198e-08
1.082647145e-08
1.088987781e-08
1.101726994e-08
1.113671867e-08
0.0002613499257
-0.0001235849214
-0.0002851974564
-0.000406965641
-0.0001692980254
1.769654343e-05
4.761866534e-06
1.222779834e-06
4.901628062e-07
2.363933562e-07
1.173113502e-07
5.863799398e-08
3.135164965e-08
1.967009258e-08
1.50469305e-08
1.328084919e-08
1.2531099e-08
1.214892792e-08
1.195036342e-08
1.18447843e-08
1.178641115e-08
1.176356981e-08
1.174691372e-08
1.173610599e-08
1.173118207e-08
1.17267144e-08
1.172365281e-08
1.172110347e-08
1.172008728e-08
1.171984836e-08
1.172051192e-08
1.172211254e-08
1.17243219e-08
1.17270568e-08
1.173029499e-08
1.173477601e-08
1.173840381e-08
1.17432745e-08
1.17472143e-08
1.175169217e-08
1.175554293e-08
1.175961564e-08
1.176261836e-08
1.176526524e-08
1.176755836e-08
1.176872305e-08
1.176935784e-08
1.176967435e-08
1.176965786e-08
1.176823734e-08
1.176608472e-08
1.176475342e-08
1.176277065e-08
1.176115832e-08
1.176044454e-08
1.176308081e-08
1.1774157e-08
1.180426415e-08
1.186048584e-08
1.191124361e-08
-2.758705323e-05
-0.0001144628034
-0.0002861967409
-0.0004483995341
-0.0004423184486
2.219172345e-05
2.547151651e-05
4.255379836e-06
1.262187929e-06
5.336474761e-07
2.445563936e-07
1.107141162e-07
5.109107167e-08
2.679873556e-08
1.765931811e-08
1.438990483e-08
1.317640422e-08
1.263355055e-08
1.234993275e-08
1.220173117e-08
1.21281468e-08
1.209075905e-08
1.207047933e-08
1.206273246e-08
1.205204627e-08
1.204881916e-08
1.204598358e-08
1.204442211e-08
1.20442932e-08
1.204467517e-08
1.204524162e-08
1.204870159e-08
1.205213784e-08
1.205528575e-08
1.205984133e-08
1.206621944e-08
1.207162133e-08
1.207641004e-08
1.208411633e-08
1.208843034e-08
1.20953804e-08
1.209898768e-08
1.210662715e-08
1.210898468e-08
1.211229479e-08
1.211484271e-08
1.211625113e-08
1.211684634e-08
1.211682288e-08
1.211590281e-08
1.21143503e-08
1.211233733e-08
1.210997517e-08
1.210775075e-08
1.210602875e-08
1.210594478e-08
1.210959231e-08
1.212108611e-08
1.214258596e-08
1.216236539e-08
0.0003025331471
-4.479929101e-05
-0.0003023269957
-0.0005581150796
-0.0007012255554
-0.0001146947287
0.0001307450711
1.617405141e-05
3.225703872e-06
1.152374375e-06
4.863420055e-07
2.046349657e-07
8.496812998e-08
3.813533005e-08
2.141693321e-08
1.576033615e-08
1.37713063e-08
1.297370959e-08
1.258849835e-08
1.237778191e-08
1.226814024e-08
1.221164929e-08
1.218089504e-08
1.216429519e-08
1.215516704e-08
1.214956742e-08
1.214559723e-08
1.214312158e-08
1.21420607e-08
1.214205601e-08
1.214288369e-08
1.214482576e-08
1.214780997e-08
1.215172884e-08
1.215666744e-08
1.216259848e-08
1.216908859e-08
1.217603242e-08
1.218324866e-08
1.219036207e-08
1.219681967e-08
1.220379815e-08
1.220944151e-08
1.221427207e-08
1.221838009e-08
1.222159157e-08
1.222384528e-08
1.222512804e-08
1.22254405e-08
1.222478328e-08
1.22233029e-08
1.222117472e-08
1.221864583e-08
1.221599939e-08
1.221358088e-08
1.221198677e-08
1.221212994e-08
1.22157179e-08
1.222383716e-08
1.223211304e-08
-0.001105131229
0.008742561325
-0.0002792254838
-0.000615215716
-0.0009368337616
-0.000607361986
0.0003480224218
5.6780012e-05
8.129339763e-06
2.456619679e-06
9.342769994e-07
3.617761101e-07
1.371734035e-07
5.45063983e-08
2.652594956e-08
1.74980765e-08
1.449825207e-08
1.335295323e-08
1.281310083e-08
1.252190339e-08
1.236084595e-08
1.227629828e-08
1.223066632e-08
1.220476409e-08
1.218995316e-08
1.218104938e-08
1.217511014e-08
1.217096985e-08
1.216838403e-08
1.216706579e-08
1.216683186e-08
1.216781918e-08
1.217020358e-08
1.217388978e-08
1.217870873e-08
1.218453151e-08
1.219120186e-08
1.219852835e-08
1.220620871e-08
1.221395213e-08
1.222149457e-08
1.222873298e-08
1.223532933e-08
1.224112761e-08
1.224600596e-08
1.224996351e-08
1.225290159e-08
1.225471077e-08
1.225540665e-08
1.22550151e-08
1.225366911e-08
1.225155522e-08
1.22488987e-08
1.224599408e-08
1.22431702e-08
1.224085105e-08
1.223960582e-08
1.224042329e-08
1.224403915e-08
1.224835572e-08
0.001138543758
-0.000258973706
-0.00025281262
-0.0008709712193
-0.001301121301
-0.00122497009
0.0003818750507
0.0002385607666
3.013175949e-05
6.350442625e-06
1.93116891e-06
6.485247243e-07
2.194824112e-07
7.791035181e-08
3.341621847e-08
1.985044569e-08
1.550212237e-08
1.38541921e-08
1.30922422e-08
1.268962128e-08
1.247095282e-08
1.234426039e-08
1.227257775e-08
1.223441423e-08
1.221143701e-08
1.219700797e-08
1.218804821e-08
1.218184901e-08
1.21773476e-08
1.217440957e-08
1.2172883e-08
1.217269846e-08
1.217399834e-08
1.217682556e-08
1.218102547e-08
1.218641442e-08
1.219283577e-08
1.220009045e-08
1.220792443e-08
1.221602353e-08
1.222406401e-08
1.223182394e-08
1.223910363e-08
1.224563657e-08
1.22511957e-08
1.225576083e-08
1.225923941e-08
1.226150506e-08
1.226256841e-08
1.226244913e-08
1.226125881e-08
1.225919293e-08
1.225648353e-08
1.225342925e-08
1.225037807e-08
1.224772429e-08
1.224597359e-08
1.224591093e-08
1.224797763e-08
1.225079778e-08
-0.0001351246385
-0.0006215389079
-0.0004229974513
-0.001464551327
-0.002062576539
-0.002101532156
6.517989996e-06
0.000759094114
8.044827284e-05
1.565629316e-05
3.878280673e-06
1.092252513e-06
3.241283584e-07
1.038639745e-07
4.085505086e-08
2.255555309e-08
1.671576625e-08
1.450655353e-08
1.346588468e-08
1.290442858e-08
1.260263754e-08
1.243047513e-08
1.232678005e-08
1.226728327e-08
1.223332123e-08
1.221310877e-08
1.220036596e-08
1.219137713e-08
1.218468887e-08
1.217994672e-08
1.217683265e-08
1.217521276e-08
1.217517249e-08
1.21767817e-08
1.217998534e-08
1.218461859e-08
1.219049337e-08
1.219739492e-08
1.220507598e-08
1.221324393e-08
1.222153914e-08
1.222965141e-08
1.223736783e-08
1.224443078e-08
1.225053874e-08
1.225559086e-08
1.225952298e-08
1.226219826e-08
1.226359362e-08
1.2263729e-08
1.226270465e-08
1.226071033e-08
1.225799923e-08
1.225487579e-08
1.225170461e-08
1.224889727e-08
1.224696655e-08
1.224660441e-08
1.224796915e-08
1.2250072e-08
-0.002239941888
-0.001060219984
-0.009065759669
-0.001625396796
-0.003123819057
-0.003482977949
-0.0008200886063
0.001456975393
0.0002905634798
4.096029947e-05
7.683481015e-06
1.79123708e-06
4.624319975e-07
1.335733023e-07
4.896076965e-08
2.565525567e-08
1.819947704e-08
1.530132021e-08
1.392485402e-08
1.316838956e-08
1.276813027e-08
1.253025264e-08
1.239109731e-08
1.230905875e-08
1.22608588e-08
1.223272958e-08
1.22151372e-08
1.220287009e-08
1.219378439e-08
1.218697327e-08
1.218204438e-08
1.217886584e-08
1.21774033e-08
1.217766486e-08
1.217964872e-08
1.218328078e-08
1.218838444e-08
1.219472165e-08
1.22020274e-08
1.221001076e-08
1.221832313e-08
1.222660034e-08
1.223455887e-08
1.224195266e-08
1.224847385e-08
1.2253907e-08
1.225819514e-08
1.22612103e-08
1.226288197e-08
1.226324514e-08
1.226238236e-08
1.226048308e-08
1.225781068e-08
1.225467836e-08
1.225146547e-08
1.224860332e-08
1.224661782e-08
1.224611674e-08
1.224699683e-08
1.224850651e-08
-0.004154473453
-0.001876526073
-0.0006933621302
-0.001728414169
-0.004401758152
-0.00526289292
-0.001611133276
0.002104507836
0.000717858704
0.0001130109906
1.620596481e-05
2.861350815e-06
6.122690777e-07
1.596058361e-07
5.620618021e-08
2.87007631e-08
1.969908382e-08
1.615074855e-08
1.441883312e-08
1.347336628e-08
1.295522318e-08
1.26467872e-08
1.246517745e-08
1.235780832e-08
1.229382215e-08
1.225510307e-08