/*--------------------------------*- C++ -*----------------------------------*\
  =========                 |
  \\      /  F ield         | OpenFOAM: The Open Source CFD Toolbox
   \\    /   O peration     | Website:  https://openfoam.org
    \\  /    A nd           | Version:  10
     \\/     M anipulation  |
\*---------------------------------------------------------------------------*/
FoamFile
{
    format      ascii;
    class       volScalarField;
    location    "0.02498436188";
    object      ddt0(rho,k);
}
// * * * * * * * * * * * * * * * * * * * * * * * * * * * * * * * * * * * * * //

dimensions      [1 -1 -3 0 0 0 0];

internalField   nonuniform List<scalar> 
5170
(
23.99920659
0.1311527454
-2.358704753
7.496104847
-7.875753125
-10.42237559
2.819474216
21.46210083
-1.802905571
-0.02073875649
-42.92948142
-59.49838473
-61.82217922
-6.35349219
-4.999921695
63.20087435
46.72080688
-32.83805112
-1.355251496
-3.859496592
29.09304872
106.4787643
305.50442
9.214485432
-5.456967774
-125.9420154
-197.1298705
-243.423057
-17.02990651
3.986806458
3.30464566
-69.56141103
-781.0697052
-33.39915232
2.443398254
104.2686664
165.0656514
475.2622701
48.26314661
4.469502082
35.36992044
83.4083701
269.3101452
-21.69635735
18.93860643
-61.16451087
-32.17661784
94.50994541
-144.1829697
24.35469966
-59.3782637
-78.09931355
-25.68949125
50.83675042
16.00825438
4.677543176
-30.00583377
-64.0244073
180.7430882
11.55339751
31.6617413
16.40771727
-38.8603779
142.4362936
15.60644551
23.58063464
23.80678371
-1.494420847
2.082898415
21.36154301
0.02798323712
51.16526105
8.813729538
-121.0321272
21.81134779
-24.87356623
-37.50019838
10.72573642
-145.4901918
18.45276731
-4.297037414
-22.59917238
1.441458422
13.90105783
19.38512912
12.17413288
6.318361927
-19.00066604
160.2214102
20.63886278
7.200214803
9.529140076
-4.763970977
50.56381057
20.56320201
4.595845566
8.734708647
6.144648055
-113.2424602
5.87486816
0.09957502558
0.08854123365
-0.00414321902
0.1276126575
-0.06423771872
-0.005034604356
0.09589691305
0.03641339718
0.04166341652
-0.01484804544
-0.00869465032
-0.003784983363
0.0614499352
0.05254815243
0.006882195934
-0.0007613612626
0.04180038627
0.0046639342
0.001108041872
-0.0024509897
0.00265398305
-0.004503637993
-0.01223263602
-0.006541704544
-0.0007269438423
0.0002411109313
-0.0005740094763
-0.007440188977
-0.004888469937
0.0004652082253
-0.003533340409
-0.01488585967
-0.0151953533
0.1290644385
0.006630732852
-0.005614354524
-0.05180723262
-0.03265508167
-0.03352616172
0.009384954944
0.0005239704955
-0.01361854594
0.0657381371
0.03957408368
0.05281563191
0.01258455813
0.1209511443
0.06830740808
0.5604210397
0.04792805756
0.0004597815241
-0.003620638345
-0.03865536161
-0.3135787697
-0.07187128447
0.003873087486
-0.03782443439
0.0577420011
-1.250257601
-0.009539565833
0.02545814021
0.3049871932
0.4651261185
4.338319193
0.4444767228
0.003652236764
0.141577653
0.2231593836
3.994692593
-0.2188585634
-0.0239800071
-0.06799825888
0.1454902737
-13.49368617
-2.311413027
-0.0699398871
-0.1211079792
-2.713780915
-5.086080187
2.726600499
0.09464071185
1.090281475
3.907808234
14.58153733
2.464998916
0.01004747023
0.4743628957
2.548441137
5.566508643
0.1710808962
-0.1177359729
-0.5818594746
0.06262956235
-1.552916183
-1.163912924
1.174896843
-3.08837481
-4.6436826
-0.853256938
-1.433544436
-16.71462359
9.994298855
7.535252542
-47.1046
141.9801551
14.23945893
-23.23283083
49.94834562
76.97527024
-106.6287132
10.67603836
-20.04388479
-274.2320938
-160.4673386
-225.1422872
-19.78946163
22.44130383
170.1182495
368.3228527
184.7704409
-30.32944572
48.05353815
470.0272095
348.3349642
482.1793965
-16.97955661
-23.55910795
-181.4041325
-71.79458416
147.7749942
-5.598663581
-42.69595591
-241.0176394
-95.07560485
88.96839049
9.314859605
-0.479252325
11.50040492
44.25708297
8.854040483
32.14492321
60.63118218
237.4687181
210.7965238
90.302057
36.82037286
82.1891524
223.3719152
93.81923466
19.93223575
145.3081662
258.4791251
62.65291162
-39.46207248
-49.90304994
-169.0805246
-565.3715274
-446.1350991
-355.1078067
-264.2241506
-576.2905531
-319.282963
-278.4315873
-291.9552446
-265.9706577
-199.722503
-216.2347809
-142.5840661
-57.72441587
-67.09342775
-56.96151868
0.0152352686
142.587131
155.1820448
97.36873413
644.4486192
550.5429939
426.0700571
289.2027477
160.2113259
-318.3717608
-326.1759498
-401.2201209
-397.5143005
-345.5775722
-158.6082228
-55.56156328
80.54414377
147.9700275
124.8079136
644.2081125
565.5967996
323.6509618
-54.12058567
-324.6814168
-352.7242342
-571.6474507
-1126.083865
-1808.743568
-2610.754688
-3093.725852
-3861.463741
-5133.104168
-6774.895001
-8869.227523
-11587.03654
-11458.38908
-11281.47275
-11045.12751
-10265.59216
-8534.271623
-8296.294196
-7841.751827
-7300.82732
-6750.34643
-4747.408465
-4728.136366
-4774.325879
-4828.264931
-4846.540182
-3443.866222
-3231.035623
-2763.531124
-1952.76643
-902.5995705
2044.71041
2082.582673
2130.358765
1992.930149
1818.989077
2182.468376
2190.479744
2164.078519
2125.337082
2141.750377
1914.884874
1868.439815
1886.19031
1870.722003
1843.063254
1465.28967
1439.362021
1452.712962
1440.170646
1414.060787
1037.694373
1048.330325
1042.853728
1033.667471
1036.228329
759.7570551
749.6474811
755.5662077
746.1457687
753.3258573
572.2595559
573.3600641
568.9645458
572.1197346
551.0600669
451.9565751
441.1545331
441.2355187
445.3590353
430.6619742
333.4268368
330.282164
334.4986979
332.4769864
320.8628738
233.1894296
232.3700354
232.2860246
231.8654195
232.6500638
153.1468555
150.361712
149.3010186
154.0606432
147.3910695
92.09306245
93.55990981
92.45116733
93.46680225
92.63107846
54.20643441
56.31727708
54.78297448
56.92802058
52.81214544
37.02786266
31.42834305
32.50724931
34.79219404
35.75993098
18.01194164
20.93816223
21.65622928
19.07444717
22.53602103
12.37996245
13.59607946
13.21835915
13.00040678
13.42666254
9.630004338
8.890803057
8.62155297
9.677306611
7.647089779
5.070125714
7.183511168
6.673155944
6.773167247
4.685834701
4.763187276
5.23681603
5.171989268
5.522064488
3.224265516
3.425967807
4.633624681
4.461193378
4.210490947
3.870147519
3.639469477
3.570666741
3.642417408
3.740044545
4.326961484
2.639802853
3.257939388
3.248006625
3.211433907
3.230297109
2.318230244
2.776200137
2.874941545
2.745510333
2.208808116
1.991227027
2.487968869
2.413641346
2.490965435
1.411963951
1.961612731
2.140739192
2.190435141
2.000204328
1.885337886
2.013500883
1.791335852
1.935252446
1.930556804
2.025732868
1.927621761
1.745942569
1.638028302
1.78842456
2.624109529
1.046779403
1.741934326
1.865884025
1.357440331
2.159608251
1.644925211
1.424304488
1.479713078
1.562742312
0.9064591238
0.8962699977
1.620165743
1.196159664
1.447715065
1.318589668
0.8936000729
1.351124979
1.246998106
1.176717854
1.196990136
1.29473611
1.079463435
1.133567
0.988688828
1.914488121
1.169312073
1.033398244
1.055382604
0.9639708613
1.74885513
1.081873523
1.009515641
0.9842778484
0.9639596869
1.606391487
0.9421015808
0.9865213119
0.9721991068
0.891335384
1.418936885
0.9341263965
0.9382943223
0.9300313995
0.8501109742
1.248414052
0.965012112
0.9041522288
0.8343850399
0.8194630269
1.18838827
0.8789249378
0.8461251667
0.7914440793
0.7743485416
1.390776057
0.7271934785
0.8001166109
0.7986057219
0.6764306742
1.20277978
0.7642444523
0.6504491128
0.7528866077
0.6725443233
0.7863842808
0.5882097271
0.6701150049
0.647104758
0.6250417539
0.6996180286
0.614432396
0.6129877246
0.598790331
0.6196934715
0.6730002778
0.5163077224
0.5665832533
0.5356902306
0.5444158129
0.5344273088
0.6360753541
0.64602855
0.6169354872
0.6453097805
0.608990739
0.4169675272
0.4421165223
0.4333935492
0.4309673597
0.3996111576
-523.4437284
482.6457597
472.122293
702.1770823
397.5005707
280.0775974
80.52799844
-24.87284427
23.4220995
-19.62452639
-49.18734494
-243.7887956
-56.92751372
-24.58487553
144.6145169
-239.6042361
-151.6374093
36.24739105
-347.7781054
-3215.655557
-9529.610098
-9944.357441
-6703.32975
-4479.479462
-764.4513283
1699.20407
1955.203476
1869.578472
1455.814533
987.9737945
704.6609418
611.7729015
465.9420676
364.9082211
230.1631184
163.035446
98.10405368
68.59616558
24.15526929
17.01103291
14.55023184
14.46385554
14.26168659
12.68762245
6.503127813
1.303821111
2.843777674
4.717871668
5.941986231
3.278632915
1.379488666
-1.536712877
0.01289559689
3.65066868
1.277073062
1.402266321
-1.664939362
-1.430927444
-1.155417065
-0.6280815594
-0.1890447273
-0.1583618862
-1.213774352
-0.695894579
0.458656692
0.4589615097
0.3410110072
0.5737666479
0.6669691942
0.5221886434
137.0202776
-80.3224565
6.083938816
-7.679068785
1.045280932
-225.7085551
-297.973856
5.301811743
-16.61513765
-0.1496982369
26.59824779
103.7418975
360.2294711
9.7589357
38.66644349
335.3816316
207.9632486
-11.77048388
-16.1758808
-17.16061916
311.4820556
226.6644494
4.65485603
104.8268009
-13.76837291
275.6632846
153.5300454
80.13068007
76.7666163
28.05288608
64.89607157
84.77401708
23.8815863
134.5210907
-46.5640268
18.16201686
21.114364
-48.52715035
54.39201081
-68.97340883
10.43688385
-3.625762851
-73.95610059
-5.748752802
-4.644271073
-58.06412519
-173.6154455
-57.70440457
-170.3966981
23.65173244
-37.58581597
-107.8880045
-46.05133462
-83.50373535
-71.8344053
-129.3698482
-88.10461956
-3.253180013
-16.15402371
-89.66623745
-62.72365548
-54.07328677
-173.0502497
71.04243513
-47.24780864
-59.51114531
44.49012523
7.363527767
-126.5232063
-23.54870129
118.1179848
119.3891359
0.3771281949
-254.9762594
-260.0516509
-214.5833986
-392.1512425
-271.6068922
-360.9002873
-548.2152993
-136.8410494
-85.00721893
-159.2635161
-230.9398627
-128.6559797
-57.28515832
-52.54889893
32.21642768
78.39049019
-95.64193483
-568.2033991
-941.3904289
-1335.9371
-1807.355981
-1927.76579
-3900.405567
-6217.158367
-9020.671333
-13155.148
-20309.77408
-10217.95149
-10282.74423
-10333.6754
-10995.94338
-13038.69093
-9627.318263
-8626.055578
-8011.037759
-8003.109073
-7128.593061
-6639.341441
-7210.389481
-5994.424315
-4604.383126
-4115.921049
-4162.380979
-2411.347949
-1999.91893
-1773.687214
-1581.110839
-58.76332407
160.280083
330.6014453
402.3814497
384.3563294
1689.71652
1674.910539
1661.721868
1589.75668
1454.708873
2063.53242
2014.551582
1959.762364
1851.400349
1701.320514
1827.526219
1797.042383
1731.885879
1637.251873
1506.710935
1408.522592
1383.090674
1333.320705
1257.331504
1163.105714
1019.694548
997.4196017
961.318168
910.6638671
846.9753739
740.2353878
724.2353428
701.473351
670.4473679
630.3013946
557.411117
553.346838
539.7353683
519.8108643
495.5823221
436.2127044
433.2337976
425.4757581
412.4901125
397.4938153
327.6900149
329.8733855
323.585145
317.674318
306.5539869
233.8016758
233.3624559
231.9851272
227.5762168
221.8495245
152.3445241
154.9232603
153.8620636
152.8198077
149.2727863
95.18923852
96.46598233
97.59026305
96.22406067
95.76892355
56.62733657
58.77392407
59.29234865
59.50274667
59.00023959
35.52762934
35.78157383
35.70453675
36.63094787
36.11152993
21.7829849
22.00658347
22.25069308
22.59437737
22.73870408
13.81742234
13.97356006
14.64960686
14.35126667
14.83924032
9.016921627
9.613254728
9.886679598
9.829152525
10.11377714
6.281659917
7.06811249
7.024956971
7.302610379
7.219067172
4.74666884
5.502521376
5.519452163
5.566908482
5.677982495
4.297307576
4.500563598
4.530991344
4.587827988
4.626811638
3.958288184
3.871331109
3.75167314
3.987097131
3.840182953
3.258203325
3.374687319
3.16605422
3.442835577
3.292535669
2.611629854
2.870466793
2.763753616
2.952592657
2.824618352
2.111083587
2.467899068
2.459820788
2.484486586
2.516985326
2.044935983
2.121917709
2.238950874
2.130860718
2.265269423
1.942547872
1.965063251
1.958670924
1.975796629
2.00422682
2.057260673
1.793640719
1.802793573
1.841614235
1.840546069
1.774279077
1.669253823
1.643990743
1.727478821
1.675263154
1.314927839
1.510983053
1.537157841
1.528199771
1.564879062
1.359858718
1.376108851
1.373551786
1.412992466
1.404427872
1.202339324
1.255815877
1.246188746
1.288267843
1.281669428
1.372160561
1.125612258
1.173335732
1.177465716
1.192986187
1.277969386
1.067024646
1.103432295
1.106141067
1.128949129
1.203165692
1.026662755
1.050112076
1.06838212
1.072313121
1.096504196
0.9905525659
0.9967536092
1.008329867
1.032748617
1.030961868
0.9326244828
0.9545606781
0.9691330645
0.9759935388
0.9868647152
0.8676814391
0.9253230157
0.9108610876
0.929679814
1.01577681
0.8367826942
0.8572023975
0.8750643619
0.8757048639
0.9072313573
0.7838703248
0.80244975
0.8131493935
0.8206561285
0.7329654462
0.7222187758
0.7325729765
0.7426187158
0.751465655
0.663065951
0.655344554
0.6650910824
0.6699513696
0.6802789646
0.632882673
0.6197106416
0.6194149301
0.6287353343
0.6317876578
0.5322600263
0.54130049
0.5315909189
0.5406854845
0.5332767033
0.6171917705
0.6188337995
0.6091201811
0.6050345806
0.5924151007
0.403443986
0.3864443758
0.351280991
0.3089361538
0.2632000052
-0.05931067449
0.002123896245
-0.001256073308
-0.00326417628
-0.008002537094
-0.008732196583
-0.007393559237
-0.006874398188
-0.005997479782
-0.005397742178
-0.004901603011
-0.004842577846
-0.00560511947
-0.008353433193
-0.01017506214
-0.009959497858
-0.009488429096
-0.00894272563
-0.008320438156
-0.007573901096
-0.00659815539
-0.00549457986
-0.004472679205
-0.003312615529
-0.002167089266
-0.00129042599
-0.0004544095636
0.0003593111648
0.001140851971
0.001820923252
0.002341455037
0.002480783227
0.002622739974
0.002649043699
0.002566488674
0.002560410959
0.002577551977
0.002407407139
0.00221235871
0.002035644982
0.001878438131
0.001691409792
0.001565726274
0.001406888452
0.00120452627
0.001013289522
0.0008621323009
0.0007223896884
0.000597721631
0.0004756168739
0.0003557575144
0.0002470563749
0.0001266166525
4.215708872e-05
9.677597865e-05
0.0001720609145
0.0001255297238
4.337913157e-05
3.156022305e-05
-3.384696266e-05
-0.2499578986
-0.02482738836
-0.03073763128
-0.04091370034
-0.03862577793
-0.03676877146
-0.03285492951
-0.02820602882
-0.02319010579
-0.01885131512
-0.0164475392
-0.01362300273
-0.01069525579
-0.004882195863
0.0002072092625
0.002591113434
0.004258473568
0.005449209261
0.006486735842
0.007384123535
0.008196610112
0.008726233066
0.008996546326
0.009106874163
0.009019275456
0.00921316241
0.009173059024
0.00904281061
0.008806822239
0.008520353941
0.008192415859
0.007810693111
0.007377198728
0.006932192563
0.006400889635
0.006038934614
0.005577781262
0.005088800724
0.004591856128
0.004127447742
0.003660054036
0.003273773003
0.002891226342
0.002545083018
0.002210431169
0.001889188956
0.001583917605
0.001319587602
0.001071418067
0.0008850950509
0.0007046088921
0.0005707177856
0.0004792591731
0.0004416866151
0.0002701099678
7.115143451e-05
1.743036159e-05
-5.89193214e-05
-8.366378969e-05
-2.572570939e-05
-0.7601223515
-0.2660632351
-0.1322029632
-0.1193150562
-0.1385207192
-0.1360102013
-0.1165154597
-0.09807517953
-0.07703892549
-0.05822984489
-0.04182277596
-0.02899656002
-0.0186691113
-0.01230277868
-0.007646440414
-0.004265651713
-0.002220829256
-0.0003061157424
0.00139399283
0.002733413214
0.003370330672
0.003238355883
0.00298618643
0.002736318781
0.002579565948
0.002283729677
0.002109974313
0.001956236275
0.001816295829
0.001693095992
0.001591997147
0.001507154596
0.001430068067
0.001368244909
0.001334049472
0.001288652246
0.001185976605
0.001063721821
0.0009461085973
0.0008342669297
0.0007257797901
0.0006304666348
0.0005429760368
0.0004609633332
0.0003816903671
0.0003244229232
0.0002818574635
0.000234669222
0.0001995219692
0.0001630154633
0.0001309635873
0.0001065123251
7.614842881e-05
4.044071067e-05
1.391841517e-05
-1.479417408e-05
-4.056384021e-05
-0.0001267519854
-0.0002352845025
5.035937199e-05
-15.62897571
-2.656514451
-0.3811465315
-0.3279288826
-0.3360614575
-0.3175580937
-0.2727104813
-0.2292020193
-0.1867391551
-0.1489862856
-0.117882874
-0.08799559756
-0.06535485936
-0.04981994388
-0.03903789365
-0.03169140387
-0.02590542041
-0.02131532302
-0.01779069972
-0.01518609115
-0.01317600877
-0.01131673327
-0.00972783724
-0.008375390866
-0.007227173839
-0.006242984528
-0.005403809886
-0.004691093869
-0.003922178066
-0.003221672591
-0.002586555558
-0.002047205073
-0.001637897623
-0.001292755466
-0.001016303087
-0.0008032296764
-0.0006227563618
-0.0004527981374
-0.0003178819955
-0.0002185905879
-0.0001508351313
-0.0002213047961
-0.000218284327
-0.0001612994308
-0.0001103619697
-9.4832978e-05
-0.0001050624535
-6.361383265e-05
-2.180953011e-05
3.84660389e-06
2.211958e-05
3.094136699e-05
3.483862524e-05
2.403170807e-05
1.961624058e-05
7.264729037e-08
-1.685993611e-05
-0.0001261541918
-0.0001960755655
5.098747334e-05
-18.70187622
-6.04340097
-2.402193615
-0.9311206413
-0.7061632296
-0.5869703289
-0.4892787042
-0.4048140071
-0.32558788
-0.2558222564
-0.1954416996
-0.1495978833
-0.1131967653
-0.08546577201
-0.06499225068
-0.05059130591
-0.04059978047
-0.03390785035
-0.02935181529
-0.02597446644
-0.02301306478
-0.0202047486
-0.01769942576
-0.0154964486
-0.01362691265
-0.01198332764
-0.01053246484
-0.009249400445
-0.008225446745
-0.007306670874
-0.006470176506
-0.005696070522
-0.004998628464
-0.004353784169
-0.003750032739
-0.003194076829
-0.002686705708
-0.002236462664
-0.001841241802
-0.00149284327
-0.001177867193
-0.0007812109339
-0.0005340988003
-0.0003654483844
-0.0002369676805
-0.0001258866798
-3.064829981e-05
6.641183941e-05
9.489493027e-05
0.0001036511489
0.0001075301986
9.957071747e-05
8.938168576e-05
7.022239681e-05
5.901980318e-05
4.307600585e-05
3.845476445e-05
-1.57519563e-06
2.780298723e-05
0.0001882397255
-11.7369931
-5.459869976
-4.931363538
-2.572235745
-1.159314308
-0.825043567
-0.7071624245
-0.6073741831
-0.5010207397
-0.3989116772
-0.3069378422
-0.2302002775
-0.1693782183
-0.1230041549
-0.08895941278
-0.06545367139
-0.04961696715
-0.0388322093
-0.03148263777
-0.02615701907
-0.02214934266
-0.01887924947
-0.01610873557
-0.01379652649
-0.01188993884
-0.01020816581
-0.008772327171
-0.00757832363
-0.006504418245
-0.005558494522
-0.004768452429
-0.004071561778
-0.003457519523
-0.002922285742
-0.002451692667
-0.002033675885
-0.001671270582
-0.001363050286
-0.001097736559
-0.0008660950244
-0.0006599564468
-0.0004759455946
-0.0003246013428
-0.0002037136912
-0.0001296665403
-8.122690379e-05
-1.493195662e-05
-3.844299339e-06
3.364854066e-05
6.350452235e-05
5.973199007e-05
4.8129175e-05
3.59731113e-05
2.087767315e-05
1.74546835e-05
1.354879792e-05
3.191715744e-05
8.938831488e-05
0.0002441908699
0.0002014479905
6.718314558
7.663724429
-3.057436952
-11.64220085
-2.14415758
-1.005315116
-0.8994979865
-0.7766896793
-0.6535147844
-0.5301585639
-0.4148596262
-0.3136205378
-0.231385209
-0.1682453735
-0.1221625293
-0.09020683666
-0.06780802629
-0.05191668078
-0.04135393519
-0.03408771339
-0.02860185781
-0.02426471541
-0.02066667249
-0.0176559048
-0.01510809022
-0.01295284041
-0.01112499512
-0.009563698851
-0.008205633029
-0.007059626721
-0.006058475089
-0.005182959378
-0.004443446259
-0.003785654864
-0.003213087115
-0.002723296866
-0.00229364393
-0.001924675357
-0.001602097766
-0.001320945615
-0.001071679831
-0.0008565834938
-0.0006764050222
-0.0005152330687
-0.0003455556747
-0.000219336822
-0.0001734750458
-0.0001834428706
-0.0001771825154
-0.000126748831
-9.15936602e-05
-7.009835448e-05
-7.299624726e-05
-7.207096711e-05
-7.004540557e-05
-6.551397329e-05
-2.622903064e-05
5.799204299e-05
0.0003486946008
-0.001535014006
-14.31645174
-12.03054351
-50.49049848
-36.48477335
-15.23159795
-0.7289532348
-1.082902677
-0.8974201074
-0.7648182609
-0.628512929
-0.4956190715
-0.3757003072
-0.2760610647
-0.2000648975
-0.1442513502
-0.1055448414
-0.07932789635
-0.06167832966
-0.04951662336
-0.04059143582
-0.03437649182
-0.02961615051
-0.02565888562
-0.02219514905
-0.01911868176
-0.0165090058
-0.01426211078
-0.01230772871
-0.01062338719
-0.00918444654
-0.007924479156
-0.006838220033
-0.005901783231
-0.005075649775
-0.00436796935
-0.003738148907
-0.003201439797
-0.00272328118
-0.002305768953
-0.001941769279
-0.001621385905
-0.001340433696
-0.001108542954
-0.0009086351065
-0.0007556529126
-0.0005541913464
-0.0004059686435
-0.0003155012944
-0.0002666239689
-0.0002730954638
-0.000279265521
-0.0002412101654
-0.0002097065656
-0.0001921464112
-0.0001849670466
-0.0001539150255
-8.220985493e-05
6.549303049e-05
0.0006025052327
0.002128545921
-63.12015457
-26.94764413
-49.40523069
-101.9239705
-54.97447878
-0.6043280161
0.6240663269
-0.8152656507
-0.8062926651
-0.6984419761
-0.5549071275
-0.4226521022
-0.3079026049
-0.2185384039
-0.1553330026
-0.1121956552
-0.08363899143
-0.06565284029
-0.05339791487
-0.04476394889
-0.03847250122
-0.03349237186
-0.0294714519
-0.02585067808
-0.02265189799
-0.01973315161
-0.01717218719
-0.01491183455
-0.01292430282
-0.0112115667
-0.009729622001
-0.008434323853
-0.007314152881
-0.006341982957
-0.005493255551
-0.004738835714
-0.004086018768
-0.003515025179
-0.002994641104
-0.00255673627
-0.002162189513
-0.001833412948
-0.001526462752
-0.001284048249
-0.001084393431
-0.0009478032783
-0.00079835147
-0.0005998113266
-0.0004694640875
-0.0003910483936
-0.0003653446583
-0.0003672689625
-0.0003678726534
-0.0003130380076
-0.000296523679
-0.0002467681226
-0.0001750037194
2.765501192e-05
0.0007861054438
0.001674547436
-14.4003405
-28.64543444
-74.89380134
-99.23339388
-82.62937023
-2.012545466
11.59278093
0.317575222
-0.7239011446
-0.7186198106
-0.5976622539
-0.4540633258
-0.3280933895
-0.2292707425
-0.1569722017
-0.1111049321
-0.08247445965
-0.0651118364
-0.05288714166
-0.04557676392
-0.04006420251
-0.0358303014
-0.03206182654
-0.02868641671
-0.02554551273
-0.02251523791
-0.01972672785
-0.01724540171
-0.01502527341
-0.01307836048
-0.01138853429
-0.009911586039
-0.008632479981
-0.007513389352
-0.00653208417
-0.005665841245
-0.004900814179
-0.004232143242
-0.003642672018
-0.003128312031
-0.002682270826
-0.002286187859
-0.001944687925
-0.001648299814
-0.001399849917
-0.001187411904
-0.001016636884
-0.0008909982835
-0.0007766680934
-0.000635490325
-0.0005345668247
-0.000459034165
-0.0004563509455
-0.00044275
-0.0004137504575
-0.0003430507061
-0.0002681640246
-8.234130743e-05
0.0003247423963
-0.002110955306
-10.82836468
-13.54743809
-113.3883468
-129.6912757
-94.35062854
39.42257788
55.23274182
3.081847963
-0.4917037745
-0.6436753203
-0.5755758861
-0.451430623
-0.3270455635
-0.2217816052
-0.1471800392
-0.100581435
-0.07427411798
-0.05840288555
-0.04872746643
-0.04362034536
-0.03986634663
-0.03676413532
-0.03376974705
-0.03092849029
-0.02798509578
-0.02499552719
-0.022079986
-0.01942615223
-0.01701800531
-0.01486433094
-0.01296840003
-0.01130091116
-0.009843569308
-0.008568478309
-0.007458322739
-0.006486099627
-0.005641160802
-0.004892690785
-0.004239117575
-0.003659270924
-0.003160325782
-0.002715093223
-0.002333877275
-0.001990324762
-0.001704665814
-0.001458448398
-0.001255519269
-0.00108268623
-0.0009526869503
-0.0008475157636
-0.0007713809014
-0.0006540689304
-0.0005822312825
-0.0005509409511
-0.0005043386001
-0.0004082432157
-0.0003002173743
-7.437720937e-05
0.0002017287466
-0.001348040788
26.22278521
-104.0894686
-138.689145
-134.082652
-100.3317432
58.97027223
131.6648186
20.79358609
0.800545004
-0.4343525542
-0.4832931394
-0.4004428796
-0.2873178238
-0.1893868766
-0.1227455986
-0.07704245489
-0.05283687325
-0.04266290248
-0.03681479785
-0.03532991872
-0.03606865016
-0.03560443475
-0.03410375527
-0.03220185694
-0.02986127516
-0.0271057523
-0.02425256936
-0.02150295311
-0.01890692705
-0.01655899134
-0.01446580024
-0.0126191261
-0.01099923095
-0.009576971519
-0.008339053324
-0.007259836405
-0.00632356978
-0.005505567421
-0.004788224964
-0.004153094366
-0.003600117714
-0.003105308111
-0.002681360035
-0.002301428143
-0.001988036534
-0.001712936649
-0.001494436017
-0.001293453802
-0.00113617393
-0.0009906295913
-0.0009036016855
-0.000814947176
-0.0007626332261
-0.0006243875233
-0.0005935220318
-0.0004811288595
-0.0003933887261
-0.0001506692393
3.26126472e-05
-0.0006589608124
-102.1356909
-129.9606736
-177.6976336
-190.4516135
-125.0880371
88.85053241
237.1338074
62.02980801
4.094992869
-0.001970301354
-0.3105628321
-0.2879383674
-0.2018096739
-0.1233337425
-0.06729326609
-0.03079534268
-0.01535338663
-0.01577264853
-0.01701383105
-0.01889264957
-0.0250720857
-0.02957680529
-0.03127160204
-0.03144558416
-0.0304404554
-0.02834675676
-0.02586982431
-0.0231611502
-0.02048292474
-0.01799697284
-0.01573999951
-0.01375611921
-0.01199658814
-0.01046410265
-0.009116081727
-0.00795535415
-0.006934994289
-0.006054083822
-0.005276021323
-0.004597086401
-0.003993210346
-0.003463871815
-0.003004927578
-0.002606876287
-0.002267828264
-0.001957521711
-0.00170461861
-0.001483782425
-0.001312495285
-0.001150910154
-0.001043922841
-0.0009288720871
-0.0008602282705
-0.000756751693
-0.0006761690882
-0.0005514269537
-0.00043481668
-0.0002278561453
-0.0001295695197
-0.0002201875578
-198.0354301
-179.3222693
-326.0768099
-253.2463381
-156.3174658
129.7248145
363.7816962
145.8348285
16.24381155
1.393918999
0.0471463014
-0.07511273976
-0.05972576181
-0.006956793679
0.0316125227
0.04889711721
0.05037564872
0.03556184232
0.01915151368
0.01035951939
-0.003306596714
-0.01651662597
-0.02331845307
-0.02729299223
-0.02857122446
-0.02799132767
-0.02632896023
-0.02403988185
-0.0215105505
-0.01899491167
-0.01664912257
-0.01454248378
-0.01268879628
-0.01106857
-0.009671000704
-0.008451414358
-0.007390324133
-0.00645801502
-0.005650625048
-0.00493783108
-0.004313417736
-0.003764380239
-0.003289836351
-0.002865500929
-0.002502650967
-0.00216800736
-0.001898022099
-0.001658333447
-0.00148409322
-0.00130065209
-0.001175266406
-0.001041833232
-0.0009546982332
-0.0008260021109
-0.000723633208
-0.0005561694061
-0.0003851024079
-0.0001111342809
1.236097749e-05
4.177369486e-05
-384.5745728
-491.32547
-445.0378563
-342.7680918
-84.49660865
289.8389769
436.0073217
221.7427854
48.01302622
5.061158679
0.660127112
0.196375913
0.1298669059
0.1408840484
0.1450759804
0.1406815253
0.1235783818
0.0964050374
0.0737603187
0.05185827554
0.02501491432
0.003583560833
-0.01033144757
-0.01906448899
-0.0236062021
-0.02540554966
-0.02516598448
-0.02373504866
-0.02164420473
-0.0192944325
-0.01701651447
-0.01491303565
-0.01304261227
-0.01139888137
-0.00997246726
-0.008726046577
-0.007644084106
-0.006697487744
-0.005878684983
-0.005155332668
-0.004531166521
-0.003976343135
-0.00349478916
-0.003059201589
-0.002685247397
-0.002347934439
-0.002076805161
-0.001818464231
-0.001625354708
-0.001436458487
-0.001302213403
-0.001153547872
-0.001052507287
-0.0009068047339
-0.0007967166576
-0.0006106279293
-0.0004497024628
-0.0002092139653
-0.0002520350105
0.0001584944139
-558.3801833
-549.0782194
-464.2397962
-188.4292607
280.3262888
513.0098575
434.7348318
281.8382636
106.8287957
17.64185433
2.293183899
0.6360961064
0.3829926221
0.3078627288
0.2712680684
0.2297265979
0.192099238
0.1752348027
0.1427632115
0.09788266503
0.05833329195
0.02859388233
0.007986720143
-0.006370300102
-0.01513012826
-0.01990889549
-0.02175219633
-0.02164300262
-0.02038550038
-0.01858548251
-0.01661643579
-0.0146846313
-0.01290638671
-0.01132522001
-0.009937321594
-0.008724842086
-0.007670802862
-0.006755141372
-0.005960559541
-0.00526079293
-0.004650544387
-0.004104047044
-0.003625724252
-0.003197919397
-0.002824337075
-0.002493151482
-0.002214537749
-0.00195274004
-0.001754708765
-0.001552545037
-0.001414419288
-0.001256469042
-0.001148156609
-0.0009966941566
-0.0008829307353
-0.0007076646523
-0.0005848508683
-0.0004566559113
-0.0007866558608
0.0001741142419
-425.6706937
-475.8345622
-266.4896914
195.0303018
285.5288934
452.4364373
317.6613766
252.34096
176.7533054
46.30155063
5.913020823
1.222464834
0.6196098423
0.4602700251
0.3640676561
0.3439782055
0.3088788473
0.2517083664
0.1966777355
0.1439012757
0.09654628525
0.05909927907
0.03046345365
0.01029409353
-0.003243325684
-0.01143856063
-0.01576435475
-0.01748938245
-0.01747243028
-0.0165453591
-0.0151610416
-0.01361570243
-0.01212056374
-0.01072470354
-0.00948928186
-0.008393834879
-0.007441932991
-0.00660932996
-0.005871914728
-0.005222417713
-0.004651848579
-0.004130264418
-0.003678171177
-0.003263794926
-0.002909126787
-0.002583493423
-0.002312016786
-0.002049575551
-0.001849050858
-0.001644862432
-0.001506612011
-0.001338402378
-0.001219966443
-0.001047359834
-0.0009111629401
-0.0006936667079
-0.0005075815212
-0.0002968315693
-0.0006095673968
0.0002163438343
-818.6695692
-524.98471
-252.4725024
-122.1421662
670.6730109
250.1578805
112.3712146
174.6991587
212.0541647
83.55139787
12.08750805
1.603760219
0.9437600534
0.6895804943
0.5156300455
0.4245389063
0.3520125266
0.2977027841
0.2401244711
0.1819179941
0.1298027696
0.0863156737
0.05237151436
0.02758366057
0.01036155847
-0.0008263349104
-0.007655451217
-0.01129916556
-0.01282157637
-0.01304647305
-0.0124875723
-0.01158280985
-0.0105487116
-0.009522664406
-0.008573100958
-0.007700298994
-0.006924209646
-0.006228591693
-0.005605394891
-0.005037973338
-0.004526545302
-0.004065509501
-0.003651877573
-0.003269347285
-0.002937326091
-0.00262463655
-0.002365600917
-0.00211205422
-0.001917961211
-0.001716724022
-0.001574484756
-0.001397720465
-0.001277409883
-0.001096961064
-0.0009541758674
-0.0007279394826
-0.0005391223802
-0.0003674527922
-0.0007661726845
0.0002507753038
-1609.812373
-846.6024201
951.4184362
-67.77267816
-686.0218115
-360.3608182
-160.0223981
34.93907
115.9899276
92.42117094
15.50817646
0.2828063118
0.3881810721
0.7169508514
0.616300353
0.4563992248
0.3803369273
0.3238100568
0.2673452719
0.2083681821
0.153176445
0.1068655642
0.07040314432
0.04347869972
0.02410179872
0.01061220451
0.001770617602
-0.003695268582
-0.006802098558
-0.00828504401
-0.0087898302
-0.008707692288
-0.008319247813
-0.007808009162
-0.007249344055
-0.00668919734
-0.006150563699
-0.005632731338
-0.005161755388
-0.00471375796
-0.004298400558
-0.003909576917
-0.003553158557
-0.003214554397
-0.002912084789
-0.002625624864
-0.002384284265
-0.00214722111
-0.001962822776
-0.001766754857
-0.001624934751
-0.001448204248
-0.001332627248
-0.001156485906
-0.001033831046
-0.0008520574476
-0.0007611001626
-0.0007862611634
-0.001447082328
0.0002203239749
-5684.460804
-16709.69588
-5451.114076
-2150.209919