/*--------------------------------*- C++ -*----------------------------------*\
  =========                 |
  \\      /  F ield         | OpenFOAM: The Open Source CFD Toolbox
   \\    /   O peration     | Website:  https://openfoam.org
    \\  /    A nd           | Version:  10
     \\/     M anipulation  |
\*---------------------------------------------------------------------------*/
FoamFile
{
    format      ascii;
    class       volScalarField;
    location    "0.02498436188";
    object      ddt0(rho,C2H2);
}
// * * * * * * * * * * * * * * * * * * * * * * * * * * * * * * * * * * * * * //

dimensions      [1 -3 -1 0 0 0 0];

internalField   nonuniform List<scalar> 
5170
(
2.901762649e-13
3.411300529e-13
5.373761334e-13
1.102356587e-12
-2.279704843e-14
-1.75418676e-12
-1.584903069e-12
-1.110580007e-12
3.371387043e-13
-9.09883108e-13
-7.110349676e-13
-1.038410653e-12
-1.851565186e-12
-9.773725796e-13
3.388997627e-13
8.418986952e-13
3.60877141e-13
-7.178973338e-13
-2.589889265e-12
2.494739686e-12
2.540244907e-12
1.849868474e-12
4.086185119e-13
-2.437166953e-12
1.433815152e-13
4.444952096e-12
3.562091464e-12
1.829587931e-12
-1.142901527e-12
-3.003763199e-12
-1.929854475e-12
-3.014247561e-12
-4.978084765e-12
-4.218347558e-12
-1.115147258e-12
-6.013936914e-12
-6.276783667e-12
-3.19226187e-12
1.410532414e-13
8.027574502e-13
-2.378279198e-12
-5.786540308e-13
1.6850192e-12
3.706853952e-12
2.766964373e-12
3.136269493e-12
4.619506809e-12
6.714523758e-12
7.071050923e-12
5.48459251e-12
-1.100066639e-11
-1.333851078e-11
-1.638359877e-11
-1.70425281e-11
-1.161760531e-11
1.146093785e-11
1.405743319e-11
1.627042172e-11
1.639509583e-11
8.42034382e-12
3.890439014e-12
1.336495579e-12
-1.100600495e-12
1.093101407e-12
7.205506973e-12
-1.115321984e-11
-8.716956218e-12
-6.739902762e-12
-1.067472866e-11
-1.842066371e-11
-1.893475907e-12
-4.274169983e-12
-5.703949551e-12
-5.608251869e-13
1.108854474e-11
1.082648236e-11
1.310788706e-11
1.395679547e-11
8.068000065e-12
-2.649511849e-12
-3.530855768e-12
-5.524738691e-12
-5.740223158e-12
4.996793617e-13
9.964022028e-12
1.583204606e-11
1.429414954e-11
1.634628447e-11
1.039990856e-11
9.702839554e-13
-4.530976307e-13
5.895364889e-13
-3.568666999e-11
-3.708051852e-12
-5.826754689e-11
-4.854480583e-12
-1.108730593e-10
-1.169328802e-09
-9.491591891e-09
-4.553225334e-08
-1.960077894e-14
2.094146702e-14
2.46627851e-14
2.458184548e-14
2.452662853e-14
-3.027261909e-14
3.479897253e-14
-9.050019719e-15
3.397789528e-16
-1.533274017e-15
-3.070858719e-14
-9.44754197e-15
1.527058539e-14
-1.319291667e-14
-1.44676153e-15
-2.790725816e-15
-1.192567807e-14
-2.460865718e-14
2.066146567e-16
-6.475054496e-14
1.233983256e-12
-2.259393663e-13
1.878659453e-13
-4.245483744e-14
-6.558880405e-12
-1.023429221e-10
-4.797669515e-12
3.672049937e-12
-1.981207631e-12
-1.755850496e-10
-1.592437136e-10
-5.967872559e-12
-2.061360768e-11
-2.034298796e-09
-2.088808113e-08
2.686931894e-09
-1.442698055e-09
2.164753435e-10
5.230021155e-09
-2.294689143e-08
-2.658777921e-07
-3.258109505e-07
1.645056344e-08
-9.296591088e-08
6.999316845e-07
2.016723852e-08
-1.028800776e-06
-4.537658735e-07
-3.643601293e-07
-4.319534794e-08
6.618812137e-08
-4.713434509e-07
-2.420332782e-08
-9.874282907e-08
1.243102923e-08
1.940841978e-08
-8.305608303e-08
-3.580266347e-07
-3.32902813e-09
2.203805872e-08
2.760226181e-08
-1.0234188e-08
4.519667508e-08
2.508765202e-08
-7.599167875e-09
2.066581972e-08
-9.595879145e-09
1.951083083e-08
6.124879463e-09
-8.560069681e-09
3.108730347e-09
1.739955581e-08
1.151087641e-08
8.316011936e-10
1.936837931e-08
1.042426326e-08
2.282994078e-09
4.505240033e-09
7.633581667e-09
4.744629942e-08
2.625341688e-08
-6.969761453e-09
-6.89779819e-09
3.214400203e-08
-1.716240428e-07
4.77179433e-08
2.659865969e-08
2.70271752e-08
5.10254934e-08
-6.925528891e-07
-1.900573703e-07
2.772643228e-08
4.237345424e-08
-1.904534599e-07
-6.953281711e-07
6.942617015e-07
-8.602857414e-08
-2.113635392e-07
9.695782996e-08
-7.929048226e-09
-1.319094991e-09
-1.013970991e-08
-1.573703681e-07
-2.114868255e-06
-1.646997774e-05
-7.740100666e-08
-6.533390982e-07
-7.619435146e-06
-8.370216651e-05
-0.0005911502211
-2.573216839e-07
-2.574789848e-06
-3.247364257e-05
-0.0002812152471
-0.001343986657
-2.973225242e-07
-3.666825214e-07
-2.686140855e-05
-0.0003501068077
-0.001597585357
-1.807963282e-06
-7.444767941e-06
-7.697391251e-05
-0.0004642673696
-0.001141476174
-6.394031722e-06
-4.695404594e-05
-0.0002672824777
-0.0006913031056
-0.001161043505
-1.288152008e-06
-4.090504378e-05
-0.0002115281208
-0.00076822515
-0.00106838486
2.471872426e-05
6.493469182e-05
2.61924588e-05
-0.0002599631804
-0.0005812969016
6.205333567e-05
0.0001640691072
0.0002858445376
0.0004091570991
0.0003612274927
2.62054658e-05
0.000131142046
0.0003358181647
0.0004423685612
0.0007914320646
-4.288925453e-05
-0.0001257272095
-1.627655652e-05
0.0003502208117
0.0008904892262
-0.001024122053
-0.0007581483455
-0.0004333932489
-0.0001358372756
0.0003993019877
-0.0003089528592
-4.859652809e-05
0.0002150335911
0.0003983660898
0.0004719212351
0.0006050874984
0.0007727586469
0.001250290852
0.001481479377
0.00135844918
0.001554143857
0.001610445698
0.002012773587
0.001966130775
0.001743840939
0.002156050973
0.002158242713
0.00258422132
0.003076197478
0.003612423423
0.001431526533
0.001911366907
0.003011867646
0.0047478888
0.006635732219
0.005382247065
0.006656033803
0.009218018388
0.01292867119
0.01771675879
0.01222874338
0.01443281526
0.01913514148
0.02681834676
0.03812781728
0.01857670876
0.02157067605
0.02744562174
0.03660301833
0.04919661034
0.02409094992
0.0266564408
0.03191333961
0.03889373366
0.04653936804
0.02802542026
0.02930582044
0.03191708793
0.03472853804
0.03738409176
0.02709221472
0.02759876967
0.02819434604
0.02876970703
0.02911902855
0.02485632971
0.02498545269
0.02502605374
0.02495829665
0.02449907645
0.02355368423
0.02355631961
0.02335346391
0.02299630227
0.02268648697
0.02244943793
0.02236929372
0.02221327488
0.0219046183
0.02156849611
0.02094169403
0.02089642991
0.02071635368
0.02043139848
0.02014235826
0.01839250332
0.01826363869
0.01812992362
0.01786693609
0.01750986706
0.01497802893
0.01488836044
0.01476318695
0.01453250059
0.01421797936
0.0114767326
0.01143902078
0.01132135499
0.0111386076
0.01091119051
0.008449076791
0.008404507842
0.008325558048
0.008189362933
0.008025046869
0.006024415344
0.006000921737
0.005940409287
0.005852332532
0.00572237017
0.004193057494
0.004171875519
0.004133389
0.004075353982
0.003990455168
0.002829736975
0.002818551913
0.002795268032
0.002756265462
0.002702380751
0.001846245209
0.001839798467
0.001824745637
0.00180113407
0.001770329119
0.001159372296
0.001155379364
0.001146508818
0.001133414786
0.001114345005
0.0006995472951
0.0006977310899
0.0006928105591
0.0006852391579
0.0006750356724
0.0004059450627
0.0004050473149
0.0004024233906
0.0003984706502
0.0003928722202
0.000226507576
0.0002258515094
0.0002246141441
0.0002226267974
0.0002199194878
0.0001210391364
0.0001208632048
0.0001202743684
0.0001192456885
0.000117979457
6.192590232e-05
6.184270578e-05
6.157290739e-05
6.112266492e-05
6.052368336e-05
3.020840445e-05
3.017022372e-05
3.00592294e-05
2.987311323e-05
2.960770237e-05
1.400419979e-05
1.399708093e-05
1.395499417e-05
1.38806535e-05
1.37752951e-05
6.162128557e-06
6.159908458e-06
6.146309078e-06
6.120162418e-06
6.081808586e-06
2.567818454e-06
2.568186034e-06
2.564486432e-06
2.556211371e-06
2.544458876e-06
1.012770336e-06
1.013167351e-06
1.012582015e-06
1.010538414e-06
1.007579678e-06
3.77677116e-07
3.780349742e-07
3.781424363e-07
3.778407626e-07
3.773075257e-07
1.332193377e-07
1.334081742e-07
1.335862449e-07
1.336485271e-07
1.336643081e-07
4.442265143e-08
4.450659759e-08
4.46012216e-08
4.468187633e-08
4.476195037e-08
1.397926059e-08
1.401420546e-08
1.406148067e-08
1.41039776e-08
1.416100968e-08
3.896292926e-09
3.912233789e-09
3.899862828e-09
3.919097365e-09
3.952487481e-09
1.166138227e-09
1.172178318e-09
1.110989845e-09
1.120907852e-09
1.131393484e-09
2.837712733e-10
2.854077346e-10
2.876654115e-10
2.903604618e-10
2.936022246e-10
6.662996926e-11
6.697177391e-11
6.752521135e-11
6.81937107e-11
6.90117153e-11
1.308509981e-11
1.318250131e-11
1.334665842e-11
1.355986985e-11
1.383092424e-11
2.232142716e-12
2.255936281e-12
2.298783406e-12
2.357336238e-12
2.435718828e-12
2.479987537e-13
2.516754808e-13
2.581282386e-13
2.669686916e-13
2.793819639e-13
-1.231497155e-15
-8.867728026e-16
-3.529628614e-16
4.209445763e-16
2.091425949e-15
-4.124963842e-16
-3.839192024e-16
-4.770460693e-16
7.267057804e-16
1.049148329e-15
9.873270317e-16
9.793423542e-16
9.65206e-16
1.365219245e-15
-6.238240634e-16
3.234053999e-15
3.238168124e-15
3.196238363e-15
3.104960228e-15
2.529614908e-15
-4.243748301e-15
-4.585772809e-15
-5.290240143e-15
-6.224578896e-15
-7.227096859e-15
-6.29393886e-14
-6.332680786e-14
-6.384297848e-14
-6.344163148e-14
-6.09218657e-14
-8.83247733e-14
-8.769930642e-14
-8.587246003e-14
-8.203575496e-14
-7.407934772e-14
-9.625258835e-14
-9.52981624e-14
-9.279789851e-14
-8.818158945e-14
-7.96159591e-14
-4.755025626e-14
-4.668950264e-14
-4.487094894e-14
-4.250773421e-14
-3.92216958e-14
-6.297183947e-14
-6.459789794e-14
-6.727794618e-14
-6.998931596e-14
-7.216019044e-14
-3.23018374e-14
-3.2238976e-14
-3.214804737e-14
-3.20266082e-14
-3.229125471e-14
1.452913236e-14
1.392535381e-14
1.262574167e-14
1.073079628e-14
8.334758967e-15
2.487521025e-14
2.470427482e-14
2.443218587e-14
2.415871448e-14
2.381020211e-14
-5.021266083e-05
-0.0002300128565
-0.001818746974
-0.001417027405
-0.001529782109
-0.001013597976
-0.001474673867
-0.0006930554566
0.0004350326087
0.0008915262816
0.001117895174
0.0006391293895
0.001864926403
0.001657497059
0.002327560917
0.001270535175
0.008972168124
0.02124638413
0.04964585127
0.05979566926
0.05235125561
0.03890014751
0.0289014423
0.02447073206
0.02171587688
0.02116465279
0.01963666444
0.01730087919
0.01405345486
0.01071039578
0.007874082671
0.005675807862
0.003952254111
0.002681651554
0.001749508095
0.001104762424
0.000669241948
0.0003904795929
0.0002180603085
0.0001172127397
6.025523655e-05
2.953494558e-05
1.376344511e-05
6.084814275e-06
2.547112375e-06
1.00941592e-06
3.787439431e-07
1.344421253e-07
4.511079788e-08
1.428608374e-08
4.03369642e-09
1.146306201e-09
2.982463035e-10
7.02132183e-11
1.419083019e-11
2.533778703e-12
3.04481493e-13
5.248395128e-15
1.569322237e-15
-2.838295065e-15
1.046009173e-15
-7.808018182e-15
-5.635456571e-14
-6.446236354e-14
-6.975104692e-14
-3.606741176e-14
-7.129034202e-14
-3.194696877e-14
6.511374184e-15
2.35513562e-14
-2.391482223e-05
-1.598271074e-05
-3.980568558e-09
-7.937843133e-08
-3.853709408e-09
-0.001534364852
-0.003966043851
-2.065753015e-05
-8.867822412e-06
-6.421036335e-07
-0.003345620638
-0.003837046706
0.002277836567
5.64712508e-06
-4.072247181e-08
-0.003083166964
-0.001968676439
0.01075807155
0.0001862377739
2.600932809e-05
-0.001694885241
-0.008008534528
-0.3101063611
-0.009024675318
0.0001673201688
-0.001379399109
6.514190257e-05
-0.01285965661
-0.001282719776
-0.0001593178886
-0.001992657143
-0.002042893225
0.006592603534
-0.0001372307981
0.000375457589
-0.0005087849475
0.0004259614412
0.02787422633
0.01784954968
0.002244901951
0.0008547110757
0.002465679608
-0.001831537718
-0.4422308115
-0.005814075338
0.0009662697829
-0.0007025820876
0.002739680904
0.04805113966
0.009383853694
0.001315066707
0.0002407116935
0.001845407123
-0.154097173
-0.001338927145
0.001058045613
0.001001911908
0.001412318918
0.005535936809
0.02819017568
0.001390881914
0.00179967319
-4.081066347e-05
0.005218846476
-0.005276018401
0.001392238406
0.002521422551
0.002035096839
0.0003740371318
-0.002030723543
0.002225989823
0.003716147207
0.00367290768
0.001821519914
0.3084816096
0.002897913232
0.002591774458
0.003558832252
-0.001941257797
0.2134296831
0.009015502039
0.0084458474
0.001746616821
-0.009140870376
0.1151337697
0.02610679998
0.03388411798
0.03809384283
0.02777460473
0.03510005724
0.06474276493
0.09998501015
0.1432136954
0.1580613405
-0.1055913986
0.07589343002
0.1071161638
0.1472076623
0.1740338788
-0.3232203343
0.06068979036
0.07177592489
0.07871392235
0.08031077452
0.04210057865
0.04168615933
0.04273518511
0.03985880497
0.03209125231
0.01676493425
0.02950005131
0.02798665481
0.02417835873
0.01865125704
0.01208512493
0.02372780265
0.02206085952
0.01954392157
0.01650152164
0.01342494361
0.02168221088
0.02041288247
0.01880998848
0.01699705702
0.01516013669
0.02076371194
0.01977908688
0.018580682
0.01720915463
0.01572319133
0.01940809088
0.01853401045
0.01747033567
0.01621411301
0.01481930485
0.0169331987
0.01619436519
0.01522677986
0.01408689775
0.01281540064
0.01377035999
0.01316769071
0.01235743076
0.01139353879
0.01033347048
0.01056957354
0.01010995122
0.009482075498
0.008736248192
0.007919504028
0.007786026442
0.007457693271
0.007003130122
0.006462209181
0.005870510278
0.005571747119
0.005351482419
0.005037564549
0.004661530919
0.004250138634
0.003893238934
0.003747782518
0.003538246734
0.003284913637
0.003006517091
0.002643432779
0.00255243735
0.002416312383
0.002251122594
0.002067098613
0.001735678633
0.001680181508
0.001595792353
0.001490967397
0.001373619477
0.001096672754
0.001065345125
0.001014811277
0.0009511580398
0.0008788910627
0.0006664950333
0.000649527844
0.0006207772308
0.0005834909921
0.0005408568768
0.0003893779217
0.0003808046057
0.0003650428217
0.0003441755853
0.0003199087182
0.0002186470725
0.0002145102624
0.00020623751
0.000195010383
0.0001817410429
0.0001177273352
0.0001158947239
0.0001117584364
0.0001059477475
9.899375316e-05
6.063830591e-05
5.990195255e-05
5.79348562e-05
5.505874145e-05
5.156720234e-05
2.97889183e-05
2.953546105e-05
2.864768849e-05
2.729440407e-05
2.562051202e-05
1.392042147e-05
1.385428525e-05
1.347745617e-05
1.287369611e-05
1.211065541e-05
6.174147555e-06
6.169142907e-06
6.019925787e-06
5.764920246e-06
5.43575979e-06
2.595245126e-06
2.603694782e-06
2.548845783e-06
2.447431235e-06
2.313131839e-06
1.032509557e-06
1.040497867e-06
1.021979721e-06
9.840838118e-07
9.323566532e-07
3.889009787e-07
3.937217706e-07
3.879177514e-07
3.745574996e-07
3.557884393e-07
1.384947069e-07
1.40808922e-07
1.392705355e-07
1.348998239e-07
1.284960816e-07
4.664223622e-08
4.765405198e-08
4.732511233e-08
4.599292743e-08
4.381012319e-08
1.485713786e-08
1.507805854e-08
1.506344691e-08
1.482818609e-08
1.419623802e-08
4.331524971e-09
4.460737787e-09
4.481537718e-09
4.318380891e-09
4.154914468e-09
1.202874154e-09
1.24884825e-09
1.255325029e-09
1.232713866e-09
1.187652155e-09
3.147233502e-10
3.289219698e-10
3.32070914e-10
3.269581576e-10
3.160180347e-10
7.453489674e-11
7.847468023e-11
7.996741273e-11
7.937837572e-11
7.676667641e-11
1.53295026e-11
1.64623072e-11
1.698638575e-11
1.702379334e-11
1.662885004e-11
2.801654717e-12
3.078255976e-12
3.219651798e-12
3.254867912e-12
3.216681904e-12
3.434742269e-13
3.939654308e-13
4.182402515e-13
4.246113345e-13
4.208450574e-13
7.877050611e-15
1.246105828e-14
1.470553372e-14
1.523299206e-14
1.501622996e-14
1.125905462e-15
-4.596754702e-16
-2.5201388e-17
-1.494043273e-16
7.415527101e-16
5.944285911e-17
-1.273050726e-15
-1.343800357e-15
-1.275319874e-15
7.449595994e-15
3.370097124e-15
3.354456517e-15
-1.364086918e-15
-9.119157926e-16
-5.350123243e-16
-8.544457633e-15
-8.610952757e-15
-7.271898184e-15
-4.41135826e-15
-1.739806162e-15
-4.635680931e-14
-2.15663762e-14
-7.087446848e-15
2.95070483e-15
-4.866452096e-15
-5.446254325e-14
-3.088513068e-14
-9.834097749e-15
2.485345239e-15
2.515847068e-15
-5.992382899e-14
-3.804857142e-14
-1.887261615e-14
-6.164697105e-15
-3.747929768e-15
-3.903564979e-14
-4.443417121e-14
-5.341101507e-14
-6.243218875e-14
-7.20239303e-14
-7.947282745e-14
-8.066674884e-14
-6.10985428e-14
-6.149197663e-14
-6.119006646e-14
-3.196392883e-14
-3.251402218e-14
-3.651130449e-14
-3.728352284e-14
-3.726132873e-14
3.553349348e-15
5.566810356e-16
4.621560941e-16
2.102154926e-15
2.759472973e-15
2.365157257e-14
1.869219375e-14
-3.946524739e-15
-1.1254822e-15
-9.781488141e-15
-1.910686049e-09
2.037360891e-10
2.327847161e-11
-1.552181991e-11
-9.178806219e-12
9.604935851e-13
-8.350323228e-15
-2.813778807e-16
-3.330715599e-16
-3.342257775e-16
-3.344776258e-16
-3.346867248e-16
-3.348786253e-16
-3.350598799e-16
-3.354763367e-16
-3.329873364e-16
-3.331926156e-16
-3.359137627e-16
-3.357715403e-16
-3.358635686e-16
-3.359386657e-16
-3.359921454e-16
-3.360267032e-16
-3.360403715e-16
-3.360410459e-16
-3.360315282e-16
-3.360158581e-16
-3.35996371e-16
-3.359766039e-16
-3.359595414e-16
-3.359475939e-16
-3.359429371e-16
-3.35946241e-16
-3.359578759e-16
-3.359776306e-16
-3.360052322e-16
-3.36039554e-16
-3.360795309e-16
-3.361239758e-16
-3.361713905e-16
-3.362206297e-16
-3.362708563e-16
-3.363211835e-16
-3.363706858e-16
-3.364185774e-16
-3.364642809e-16
-3.36507309e-16
-3.36547557e-16
-3.365847713e-16
-3.366190143e-16
-3.366501789e-16
-3.366783613e-16
-3.367037034e-16
-3.367264524e-16
-3.367468519e-16
-3.367656492e-16
-3.36788576e-16
-3.368761924e-16
-3.372193216e-16
-3.37618805e-16
-1.226145666e-07
-3.241437233e-09
-3.086522468e-10
2.269167193e-11
8.36928058e-12
5.522892031e-12
5.214347262e-12
-2.301139043e-16
-2.330973551e-16
-2.333065234e-16
-2.334526598e-16
-2.335860427e-16
-2.337085942e-16
-2.338331761e-16
-2.342849727e-16
-2.322810039e-16
-2.326967274e-16
-2.343879138e-16
-2.341392367e-16
-2.341833533e-16
-2.342367242e-16
-2.3428473e-16
-2.343288622e-16
-2.343630133e-16
-2.343890643e-16
-2.344032471e-16
-2.343973174e-16
-2.343657639e-16
-2.343217266e-16
-2.342816537e-16
-2.342481792e-16
-2.342231852e-16
-2.342078559e-16
-2.342014838e-16
-2.342043103e-16
-2.342156911e-16
-2.34234144e-16
-2.342591489e-16
-2.342892443e-16
-2.343226103e-16
-2.343582953e-16
-2.343953577e-16
-2.344326153e-16
-2.344692264e-16
-2.345046653e-16
-2.345381335e-16
-2.345693066e-16
-2.345974522e-16
-2.346224487e-16
-2.346443756e-16
-2.346631652e-16
-2.346789606e-16
-2.346914609e-16
-2.347020716e-16
-2.347123825e-16
-2.347231634e-16
-2.347395649e-16
-2.347770825e-16
-2.347589687e-16
-2.346712175e-16
-2.820765592e-07
-2.352614698e-07
-1.544489912e-08
-9.486137418e-10
-1.06485238e-10
1.222382444e-11
4.30513282e-11
4.186107746e-11
2.809881661e-11
-2.287433237e-16
-2.289060452e-16
-2.29053315e-16
-2.291862487e-16
-2.293343502e-16
-2.298997915e-16
-2.270502024e-16
-2.279680128e-16
-2.300369144e-16
-2.298251659e-16
-2.299021759e-16
-2.299866819e-16
-2.300688383e-16
-2.301465363e-16
-2.302174672e-16
-2.302827482e-16
-2.303390602e-16
-2.303864764e-16
-2.304235197e-16
-2.304473685e-16
-2.304568548e-16
-2.304416237e-16
-2.304123899e-16
-2.303917742e-16
-2.303798845e-16
-2.303762513e-16
-2.303809198e-16
-2.303927108e-16
-2.304105649e-16
-2.304329057e-16
-2.304587224e-16
-2.304867386e-16
-2.305157993e-16
-2.30545127e-16
-2.305735141e-16
-2.306000642e-16
-2.306247097e-16
-2.30646491e-16
-2.306657908e-16
-2.306803034e-16
-2.306909462e-16
-2.307014895e-16
-2.307119353e-16
-2.307222533e-16
-2.307324835e-16
-2.307429448e-16
-2.307558919e-16
-2.307833936e-16
-2.308590116e-16
-2.30983217e-16
-2.310569113e-16
2.056171594e-06
-2.014499255e-06
-9.680327577e-08
8.275691657e-09
1.089135477e-09
4.057229798e-10
4.467661079e-10
3.886557509e-10
2.712701671e-10
1.545031926e-10
7.063585771e-11
-2.280358734e-16
-2.283669975e-16
-2.286979144e-16
-2.295525453e-16
-2.259452814e-16
-2.273660053e-16
-2.297431324e-16
-2.295208676e-16
-2.29617908e-16
-2.297195291e-16
-2.298135919e-16
-2.299019958e-16
-2.299846608e-16
-2.300621642e-16
-2.301330908e-16
-2.301984476e-16
-2.302574465e-16
-2.303102149e-16
-2.303561823e-16
-2.303935554e-16
-2.304197115e-16
-2.304353017e-16
-2.304316811e-16
-2.304196796e-16
-2.304158707e-16
-2.304190532e-16
-2.304278152e-16
-2.304411673e-16
-2.304572968e-16
-2.304755158e-16
-2.304945632e-16
-2.305130075e-16
-2.305310228e-16
-2.305457922e-16
-2.305562758e-16
-2.305660663e-16
-2.305760872e-16
-2.305863076e-16
-2.305967217e-16
-2.306072409e-16
-2.306177809e-16
-2.306282787e-16
-2.306387923e-16
-2.306501501e-16
-2.306663657e-16
-2.307026293e-16
-2.307887096e-16
-2.309119949e-16
-2.309782558e-16
-1.214872678e-05
-8.360558748e-06
-5.356500407e-06
-3.02183704e-07
-1.131768401e-09
3.430699186e-09
3.166270733e-09
2.435743981e-09
1.614720762e-09
9.316008096e-10
4.646551612e-10
1.932010455e-10
6.328084748e-11
-2.282294631e-16
-2.293826151e-16
-2.248675761e-16
-2.26813879e-16
-2.296205088e-16
-2.293680082e-16
-2.294902553e-16
-2.296119243e-16
-2.297216006e-16
-2.298222342e-16
-2.299145432e-16
-2.299994991e-16
-2.300769155e-16
-2.301468849e-16
-2.302094186e-16
-2.302645453e-16
-2.303124688e-16
-2.303530063e-16
-2.30386799e-16
-2.304145644e-16
-2.304369472e-16
-2.304545636e-16
-2.304683175e-16
-2.304794295e-16
-2.304886851e-16
-2.304974119e-16
-2.305058178e-16
-2.305141854e-16
-2.305225102e-16
-2.305310807e-16
-2.305398473e-16
-2.305488436e-16
-2.305582362e-16
-2.305681457e-16
-2.305784393e-16
-2.305889467e-16
-2.305996104e-16
-2.306103857e-16
-2.306211998e-16
-2.306320254e-16
-2.306431282e-16
-2.306558963e-16
-2.306758367e-16
-2.307199926e-16
-2.308106752e-16
-2.309252742e-16
-2.309793625e-16
-2.567793659e-05
-8.728785981e-06
-1.299015669e-05
-4.666101373e-06
-1.36681827e-07
2.559660001e-08
1.610111546e-08
9.981868628e-09
6.139086832e-09
3.45397957e-09
1.731448848e-09
7.588923367e-10
2.781264633e-10
7.574759214e-11
-2.292812118e-16
-2.236778826e-16
-2.261414899e-16
-2.294808102e-16
-2.291772624e-16
-2.293340609e-16
-2.294855455e-16
-2.296174563e-16
-2.297345017e-16
-2.298396416e-16
-2.299346818e-16
-2.300203155e-16
-2.300970513e-16
-2.301651852e-16
-2.302249335e-16
-2.30276668e-16
-2.303208348e-16
-2.303580267e-16
-2.30388998e-16
-2.304147347e-16
-2.30436006e-16
-2.304537195e-16
-2.304687548e-16
-2.304817054e-16
-2.304932277e-16
-2.305037268e-16
-2.305135445e-16
-2.305229803e-16
-2.305323554e-16
-2.305418917e-16
-2.305516326e-16
-2.305615665e-16
-2.30571768e-16
-2.3058234e-16
-2.30593243e-16
-2.306043023e-16
-2.306153885e-16
-2.306264942e-16
-2.30637698e-16
-2.306495225e-16
-2.306640544e-16
-2.306883142e-16
-2.307392855e-16
-2.308317458e-16
-2.309382154e-16
-2.309818733e-16
2.254091059e-06
-5.342605395e-06
-1.405807605e-05
-1.922169883e-05
-3.105035989e-06
3.238748671e-08
4.467661536e-08
2.647137953e-08
1.618296018e-08
9.202060874e-09
4.694822211e-09
2.119073737e-09
8.288499108e-10
2.637155464e-10
4.893855934e-11
-2.225687873e-16
-2.254762778e-16
-2.293380136e-16
-2.28962583e-16
-2.291540464e-16
-2.293413927e-16
-2.295013374e-16
-2.296393302e-16
-2.297603761e-16
-2.29867767e-16
-2.299633595e-16
-2.300482556e-16
-2.301231727e-16
-2.3018871e-16
-2.302454852e-16
-2.302941369e-16
-2.303354269e-16
-2.303701811e-16
-2.303993255e-16
-2.304237335e-16
-2.304442651e-16
-2.30461709e-16
-2.30476742e-16
-2.304899769e-16
-2.305019084e-16
-2.305129385e-16
-2.30523411e-16
-2.305336273e-16
-2.305438302e-16
-2.305541996e-16
-2.305647866e-16
-2.305755494e-16
-2.305864544e-16
-2.30597568e-16
-2.306089093e-16
-2.306203952e-16
-2.306319072e-16
-2.306436002e-16
-2.306563106e-16
-2.306728789e-16
-2.307016448e-16
-2.307580045e-16
-2.308505504e-16
-2.309498298e-16
-2.309836383e-16
0.000181119009
1.033537958e-05
-1.205919498e-05
-2.68830548e-05
-1.91331815e-05
-3.057302492e-07
2.088951376e-07
8.04519049e-08
4.217704962e-08
2.322523081e-08
1.179554162e-08
5.33772276e-09
2.119517195e-09
7.201658512e-10
1.924715418e-10
-2.216047257e-16
-2.248933451e-16
-2.292099332e-16
-2.287497539e-16
-2.289653245e-16
-2.291864227e-16
-2.293764976e-16
-2.29538586e-16
-2.296781452e-16
-2.297998159e-16
-2.29906663e-16
-2.300006769e-16
-2.300831297e-16
-2.3015502e-16
-2.302172291e-16
-2.30270588e-16
-2.303159923e-16
-2.303543579e-16
-2.303866444e-16
-2.304137848e-16
-2.304366675e-16
-2.304561133e-16
-2.304728487e-16
-2.304875247e-16
-2.305006805e-16
-2.305127654e-16
-2.305241463e-16
-2.305351456e-16
-2.305460036e-16
-2.30556899e-16
-2.305679543e-16
-2.305792265e-16
-2.3059066e-16
-2.306021714e-16
-2.306137306e-16
-2.306253959e-16
-2.306372634e-16
-2.306496154e-16
-2.306634827e-16
-2.30682442e-16
-2.307155158e-16
-2.30775957e-16
-2.308675287e-16
-2.309605163e-16
-2.309852861e-16
0.0007642985865
4.894255072e-05
-1.25750638e-05
-3.28264491e-05
-4.865126392e-05
-7.297109837e-06
1.364316342e-06
3.203401098e-07
1.211367194e-07
5.944535044e-08
2.889464694e-08
1.271292528e-08
4.956159251e-09
1.686813107e-09
4.796871463e-10
9.253574964e-11
-2.243610607e-16
-2.291056045e-16
-2.285528063e-16
-2.287810995e-16
-2.290293656e-16
-2.292476368e-16
-2.294345723e-16
-2.295942547e-16
-2.29731643e-16
-2.298506931e-16
-2.299544359e-16
-2.300447915e-16
-2.301232634e-16
-2.301910077e-16
-2.302490802e-16
-2.302985181e-16
-2.303403453e-16
-2.303755913e-16
-2.304052581e-16
-2.304302863e-16
-2.304515486e-16
-2.304698197e-16
-2.304857936e-16
-2.305000511e-16
-2.305130808e-16
-2.305252739e-16
-2.305369721e-16
-2.305484365e-16
-2.305598565e-16
-2.305713475e-16
-2.305829779e-16
-2.305947843e-16
-2.306067264e-16
-2.306187277e-16
-2.306307628e-16
-2.306429955e-16
-2.306559037e-16
-2.306710358e-16
-2.306926882e-16
-2.307296607e-16
-2.307931276e-16
-2.308830508e-16
-2.309704436e-16
-2.309864617e-16
-0.0002879504773
-5.517645336e-05
-1.214829635e-05
-3.76619184e-05
-7.528676462e-05
-4.170332037e-05
7.506826417e-06
1.375301976e-06
3.420048993e-07
1.429896829e-07
6.512905899e-08
2.757527013e-08
1.042732032e-08
3.478411683e-09
1.00293545e-09
2.294601778e-10
-2.238089141e-16
-2.290136888e-16
-2.2835968e-16
-2.285950967e-16
-2.288671749e-16
-2.291123315e-16
-2.293251744e-16
-2.295072984e-16
-2.29662504e-16
-2.297951988e-16
-2.299093506e-16
-2.300079435e-16
-2.300930423e-16
-2.301663301e-16
-2.302290741e-16
-2.302824834e-16
-2.303276865e-16
-2.303657835e-16
-2.303978641e-16
-2.304249152e-16
-2.304478753e-16
-2.304675714e-16
-2.304847403e-16
-2.30500005e-16
-2.305138897e-16
-2.305268137e-16
-2.305391389e-16
-2.305511441e-16
-2.305630356e-16
-2.305749451e-16
-2.305869404e-16
-2.305990496e-16
-2.306112749e-16
-2.306236129e-16
-2.306360593e-16
-2.306487976e-16
-2.306624383e-16
-2.306790108e-16
-2.307034328e-16
-2.307439813e-16
-2.308096534e-16
-2.308974742e-16
-2.30979803e-16
-2.309876959e-16
-0.0005518172637
0.00227981489
-3.926546164e-05
-3.344303812e-05
-9.405662652e-05
-0.0001179631107
1.610401689e-05
5.312279396e-06
9.277144718e-07
3.334321932e-07
1.3882058e-07
5.514598826e-08
1.980769787e-08
6.34465684e-09
1.799135397e-09
4.274630367e-10
4.553894791e-11
-2.289287566e-16
-2.281671795e-16
-2.284048916e-16
-2.28696946e-16
-2.289666872e-16
-2.292058449e-16
-2.294123517e-16
-2.295878309e-16
-2.29736474e-16
-2.298628252e-16
-2.29970896e-16
-2.30063478e-16
-2.301428e-16
-2.302104696e-16
-2.302679113e-16
-2.303164059e-16
-2.30357208e-16
-2.303914817e-16
-2.304204305e-16
-2.304449951e-16
-2.304660382e-16
-2.304843161e-16
-2.305005079e-16
-2.305151716e-16
-2.305287555e-16
-2.305416424e-16
-2.305541302e-16
-2.305664415e-16
-2.305787225e-16
-2.305910559e-16
-2.306034765e-16
-2.306159844e-16
-2.306285819e-16
-2.306413546e-16
-2.306546271e-16
-2.306692539e-16
-2.30687586e-16
-2.307147158e-16
-2.307584603e-16
-2.308256885e-16
-2.309112048e-16
-2.30988922e-16
-2.309891281e-16
-0.01793050032
-0.0007539292707
-1.130512182e-05
-3.40153347e-05
-0.0001242127122
-0.0002166151277
-1.803122721e-05
2.463583494e-05
3.877684707e-06
9.537377048e-07
3.175561955e-07
1.102077314e-07
3.597923564e-08
1.075935313e-08
2.921090257e-09
6.972494533e-10
1.153869833e-10
-2.288542967e-16
-2.279928301e-16
-2.282251388e-16
-2.285292389e-16
-2.288174489e-16
-2.290788097e-16
-2.29308339e-16
-2.295054087e-16
-2.296723479e-16
-2.298131277e-16
-2.29932186e-16
-2.300331429e-16
-2.301189274e-16
-2.301917487e-16
-2.302533912e-16
-2.303053982e-16
-2.303491021e-16
-2.303857711e-16
-2.30416661e-16
-2.30442787e-16
-2.304651145e-16
-2.30484451e-16
-2.305015098e-16
-2.305168899e-16
-2.305310725e-16
-2.305444634e-16
-2.305573811e-16
-2.30570065e-16
-2.30582676e-16
-2.305953094e-16
-2.306080107e-16
-2.306207946e-16
-2.306336897e-16
-2.306468524e-16
-2.306606964e-16
-2.30676361e-16
-2.306965911e-16
-2.307263898e-16
-2.307729196e-16
-2.308410914e-16
-2.309241593e-16
-2.30997689e-16
-2.309905425e-16
0.0008870546666
2.211237499e-05
-1.003841936e-05
-3.971078468e-05
-0.0001805306431
-0.0003555319844
-0.0001432231575
8.487939347e-05
1.145212043e-05
2.638616415e-06
7.084216488e-07
2.053378159e-07
5.883920671e-08
1.607131371e-08
4.136019413e-09
9.816145244e-10
1.868905821e-10
-2.287923451e-16
-2.278606572e-16
-2.280797909e-16
-2.28384776e-16
-2.28681062e-16
-2.289564385e-16
-2.292040291e-16
-2.294203008e-16
-2.296051113e-16
-2.297610406e-16
-2.298920948e-16
-2.300023317e-16
-2.300952595e-16
-2.301736432e-16
-2.302396816e-16
-2.302951982e-16
-2.303417487e-16
-2.303807744e-16
-2.304135551e-16
-2.304412142e-16
-2.304647679e-16
-2.304850988e-16
-2.305029651e-16
-2.305190047e-16
-2.305337315e-16
-2.305475749e-16
-2.305608751e-16
-2.305738888e-16
-2.305867922e-16
-2.305996933e-16
-2.306126501e-16
-2.306256933e-16
-2.306388962e-16
-2.306525076e-16
-2.306670418e-16
-2.306838822e-16
-2.307060257e-16
-2.307384126e-16
-2.307873471e-16
-2.30855953e-16
-2.309364605e-16
-2.310061471e-16
-2.309917576e-16
-0.0008752787005
-0.0002181769609
-0.002076130013
-9.430601078e-07
-0.0002736873338
-0.0005925813688
-0.000402180773
0.0001620264159
4.743253186e-05
7.7493304e-06
1.563674589e-06
3.700128732e-07
9.10347898e-08
2.219640002e-08
5.333149929e-09
1.247427466e-09
2.545633344e-10
-2.287481181e-16
-2.277937183e-16
-2.279939568e-16
-2.282868622e-16
-2.285778455e-16
-2.288549998e-16
-2.29110695e-16
-2.29339345e-16
-2.295382642e-16
-2.297078679e-16
-2.298508029e-16
-2.299707132e-16
-2.300712578e-16
-2.301555858e-16
-2.302262806e-16
-2.302854731e-16
-2.303349654e-16
-2.303763443e-16
-2.304109972e-16
-2.304401565e-16
-2.304649043e-16
-2.304861885e-16
-2.305048172e-16
-2.305214697e-16
-2.305366945e-16
-2.305509458e-16
-2.305645866e-16
-2.305778917e-16
-2.305910534e-16
-2.306041937e-16
-2.306173851e-16
-2.306306794e-16
-2.306442099e-16
-2.306583334e-16
-2.306736659e-16
-2.306918376e-16
-2.307159509e-16
-2.307508314e-16
-2.308018632e-16
-2.308705976e-16
-2.309485538e-16
-2.310146201e-16
-2.309932394e-16