/*--------------------------------*- C++ -*----------------------------------*\
  =========                 |
  \\      /  F ield         | OpenFOAM: The Open Source CFD Toolbox
   \\    /   O peration     | Website:  https://openfoam.org
    \\  /    A nd           | Version:  10
     \\/     M anipulation  |
\*---------------------------------------------------------------------------*/
FoamFile
{
    format      ascii;
    class       volScalarField;
    location    "0.02498436188";
    object      ddt0(rho,CO2);
}
// * * * * * * * * * * * * * * * * * * * * * * * * * * * * * * * * * * * * * //

dimensions      [1 -3 -1 0 0 0 0];

internalField   nonuniform List<scalar> 
5170
(
-9.297931191e-10
-9.342174016e-10
-9.311301881e-10
-8.920608591e-10
-2.447460645e-11
-1.235659142e-09
-1.235062161e-09
-1.23557866e-09
-1.219203379e-09
-9.378395738e-10
-1.2797059e-09
-1.280607582e-09
-1.284840526e-09
-1.293691323e-09
-1.232096925e-09
-1.228630937e-09
-1.231165558e-09
-1.237433496e-09
-1.25315646e-09
-1.273932803e-09
-1.159000051e-09
-1.162647098e-09
-1.170662937e-09
-1.185527901e-09
-1.218909096e-09
-1.094280963e-09
-1.096241219e-09
-1.102094086e-09
-1.121330179e-09
-1.148152726e-09
-1.050134364e-09
-1.051144203e-09
-1.054011973e-09
-1.068869724e-09
-1.089118961e-09
-1.029457543e-09
-1.032486902e-09
-1.035284071e-09
-1.036917489e-09
-1.053153041e-09
-1.033970016e-09
-1.034065182e-09
-1.034227646e-09
-1.033702764e-09
-1.046151451e-09
-1.057936043e-09
-1.055836243e-09
-1.044837675e-09
-1.053708164e-09
-1.065969839e-09
-1.087963651e-09
-1.088127904e-09
-1.080853176e-09
-1.082926187e-09
-1.097549676e-09
-1.118939874e-09
-1.120408396e-09
-1.127300739e-09
-1.116199109e-09
-1.130771708e-09
-1.151977021e-09
-1.152167355e-09
-1.159515303e-09
-1.151399846e-09
-1.162579714e-09
-1.179904112e-09
-1.177791544e-09
-1.178179884e-09
-1.179053491e-09
-1.184971714e-09
-1.195614766e-09
-1.193796898e-09
-1.188991464e-09
-1.193616161e-09
-1.192988958e-09
-1.197815415e-09
-1.198783049e-09
-1.192724373e-09
-1.192644027e-09
-1.188029103e-09
-1.189285452e-09
-1.191155704e-09
-1.188987992e-09
-1.178998895e-09
-1.171077974e-09
-1.171253788e-09
-1.172376216e-09
-1.180960029e-09
-1.180063159e-09
-1.042498825e-09
-1.170085071e-09
-7.319774157e-10
-8.566972469e-10
-6.292143355e-09
4.803670774e-08
-5.669091e-10
2.426675602e-07
1.672026467e-06
2.302415194e-06
6.136788436e-06
0.006370394991
0.002554044406
-0.005513614593
0.01223062115
-0.01483462885
-0.001484553958
-0.00421385659
-0.01440411411
-0.003828519387
0.01660973082
0.003547224564
-0.004189347284
0.002023354779
-0.0003899391985
0.0008346703818
-0.001163322189
-0.0004708146077
-0.003541867913
0.001582703137
-0.0004651112668
-0.0009768884509
-0.0006789265821
0.00101733516
0.002409793793
0.003525841738
0.001931306645
0.003643955753
0.002833726887
0.003008616732
0.003028587702
0.0001748690512
-0.0008585337681
-0.0025636475
-0.0001961577857
0.001866494332
0.0003113717467
-0.0006790237846
-0.001030566161
0.001592411301
0.0006496467147
-0.001413823262
0.003790737328
0.00333256793
0.001074682593
0.0004181184393
0.002976038898
-0.002351455887
-0.001201063396
-0.0004500211947
-0.0006859774662
-0.001612724646
-0.001631106014
-0.0013982913
-0.004728185506
-0.001589057489
-0.001179611531
-0.0003515424408
0.000140290383
-0.0008758472739
-0.002285915942
-0.001769905651
-0.0003386751072
-0.001706314025
-0.001811930983
-0.0003463002071
0.006001422682
-0.01014067232
0.0003377354507
0.01148087872
-0.006488603769
-0.02003394876
0.03155027478
-0.0243188559
0.009506198197
0.0009323588389
0.0001869781693
0.01702731016
-0.03643456147
0.001432817634
0.01581033883
-0.007328617202
0.02818875515
-0.02351847075
-0.04107017596
0.04165849385
0.004343290519
0.005597772664
-0.005760384711
-0.00910358342
0.001949356593
-0.01189814444
-0.02008483845
0.01190763473
0.05027131247
-0.03395591099
0.1256455264
-0.126410235
-0.06212004574
0.1398177628
-0.05579586689
-2.043706351e-06
7.197495143e-07
-1.660714999e-05
-0.0001088785099
0.03153738682
-1.943680435e-05
-0.0001787934186
0.0001585620291
0.00397014366
-0.0492327456
-2.998959359e-07
-0.0002418864893
-0.0009123649845
0.001182088658
-0.03854229987
0.0002642150207
0.002940742276
0.0181477496
0.05039169873
-0.009131804543
0.0001116163257
0.00290732036
0.01766656163
0.04655019885
0.05921102759
-0.001182005656
-0.006199737252
-0.01514962497
0.01102345372
0.0227987198
-0.0009937143928
-0.007506348637
-0.01318438052
-0.03036342606
-0.004147330969
0.00206610466
0.004215290949
-0.003227982305
-0.01718486046
-0.02825450215
0.005597748585
0.01039151981
0.006879389815
0.008197217944
-0.009568607583
-0.001850225935
0.002351707037
0.005250049134
-0.005209797467
0.001140250681
-0.01185075537
-0.02572056126
-0.02569480709
-0.01243548178
0.007907898384
-0.09703287032
-0.07328423461
-0.05254299153
-0.04143853876
-0.01677501462
-0.0544872698
-0.03953706018
-0.02963841788
-0.02729830006
-0.03014476553
-0.001040617114
0.0001102263738
0.01543471525
0.01691880732
0.001747234705
0.05101240675
0.0389936645
0.04452999629
0.02654589029
0.002613686303
0.05983076388
0.04909832838
0.05305318623
0.0537046997
0.0515321331
-0.004554076722
-0.004926050754
-0.0003386960935
0.01289079899
0.01831689168
0.02121534538
0.02049115703
0.01566871522
0.006393894202
-0.009958755593
0.030828629
0.03489134096
0.03217402269
0.03565248593
0.04722801517
0.001841398446
0.02589239399
0.04920069991
0.1018270895
0.189804161
0.02646229388
0.0623825489
0.1450682055
0.2655186075
0.4005651891
0.2526229688
0.2931731471
0.3870271473
0.4952455529
0.6179465339
0.521182144
0.5542934615
0.6032159419
0.6709761748
0.7532421619
0.6945520103
0.7122021174
0.7389158386
0.7769466093
0.8110927536
0.7659423936
0.7759575754
0.7847435773
0.7962655901
0.8240665631
0.7463052267
0.7477441274
0.7527354317
0.7541729392
0.7614767025
0.6821685544
0.6847566422
0.683541362
0.6806782742
0.6849534891
0.5998832424
0.5930337795
0.594086951
0.5896808235
0.5827928716
0.4995015194
0.4948635334
0.4944802343
0.4891769005
0.480804043
0.3975578331
0.3981092222
0.3948927656
0.389799519
0.3851596802
0.308607498
0.305814227
0.3044908514
0.2996363437
0.2962279335
0.2289924121
0.2285300193
0.2260925183
0.2238649956
0.2169516513
0.1670374768
0.1646597019
0.1634059453
0.1621206279
0.1570874463
0.1167568949
0.1159233543
0.1157823417
0.1140671355
0.1103083927
0.08029602337
0.07989034559
0.0792933775
0.07831957521
0.07728939944
0.05399629354
0.05329131608
0.05273004932
0.05304915879
0.05100919067
0.03463461032
0.03482452968
0.03436479532
0.03419289986
0.03354009908
0.02170228774
0.02204840201
0.02154656254
0.0217656328
0.02061271192
0.01429666288
0.01301685975
0.01314964934
0.01351498704
0.01356282835
0.007548083478
0.008173971212
0.008283379915
0.007625424639
0.008303810937
0.004644329297
0.004918000021
0.004801069844
0.004707690302
0.00474211717
0.003088370828
0.002899136119
0.002814921769
0.003047161239
0.002508947944
0.00147180776
0.002002089283
0.001862594765
0.001870743399
0.001323458532
0.001156833915
0.001275013963
0.001252807642
0.001329160774
0.000711601779
0.0006858764248
0.001011020957
0.0009596460208
0.0008865947949
0.0007818446298
0.0007549982393
0.0007118082915
0.0007217789912
0.0007408530272
0.0008892009774
0.0004762500821
0.0006513799622
0.0006445797767
0.0006258508963
0.0006270388273
0.0004332744742
0.0005687119093
0.0005934914505
0.0005495338459
0.0003758995772
0.0003899883736
0.0005414789728
0.000514349405
0.0005323176301
0.0001912725005
0.0004247094254
0.000480507621
0.0004923045847
0.0004266805074
0.0003862711146
0.0004733408541
0.0004003104529
0.0004430298255
0.0004394113569
0.000452804561
0.0004670348246
0.0004045684856
0.0003661426337
0.0004133645489
0.0006882672019
0.0001852791896
0.0004298664233
0.0004701824721
0.0002923466813
0.0005695980327
0.000432478282
0.0003536234644
0.0003717529898
0.0003982822998
0.0001659764038
0.0001961771276
0.0004606357175
0.0003063038214
0.0003959839443
0.0003463205499
0.0002262847242
0.0003988674753
0.0003588626764
0.0003325899453
0.0003348976677
0.000404676437
0.0003216583483
0.0003420747033
0.000287548448
0.0006360771658
0.0003735782011
0.0003199481693
0.0003285750339
0.00029388568
0.0005964886324
0.0003487409173
0.0003193624691
0.0003095858572
0.0003028784727
0.0005565639245
0.0003031143617
0.0003221409331
0.0003162085398
0.0002845992689
0.0004958340106
0.0003091257315
0.0003117325889
0.0003088339295
0.0002754914803
0.0004444709912
0.000334420303
0.0003081549531
0.0002783822086
0.0002720904603
0.0004333025311
0.0003078249878
0.0002931417981
0.0002692730173
0.0002621073029
0.0005361380737
0.0002531742905
0.0002868760706
0.000286304605
0.0002312465811
0.0004695711123
0.0002903210576
0.0002376405027
0.0002855216147
0.0002483065864
0.0003001315138
0.0002267615671
0.0002663490799
0.0002553619454
0.0002452272577
0.0002793921377
0.0002456647724
0.0002451798695
0.0002388296515
0.0002497122187
0.0002750795345
0.0002216150476
0.0002472173708
0.0002328619864
0.000238491373
0.0002356129448
0.0002267370378
0.0002325578135
0.0002195581777
0.0002359904962
0.0002207925661
0.000203486475
0.0002169593091
0.0002130471354
0.0002132675069
0.0001999270037
-0.3936433445
0.3466409689
0.1583817876
0.2205426588
0.02613408504
0.05073769899
-0.01563590199
-0.02895578507
-0.01580623672
-0.002176357383
0.01101881109
-0.01038264498
0.03548951818
0.00968204858
0.02028523043
-0.0633351722
0.06624962741
-0.03037483024
0.09245401809
0.2497724582
0.5143792622
0.7033713667
0.7946922868
0.8659660546
0.7909950713
0.756609124
0.6625107524
0.5842106455
0.4830147457
0.3750850387
0.2859062862
0.2240836203
0.1612040731
0.1165869487
0.07602850716
0.05335790591
0.03430507182
0.02372229306
0.01090448162
0.006998610945
0.005002833772
0.004211909944
0.003704252021
0.003164102835
0.001451062678
5.632881186e-05
0.0004749632013
0.001151335033
0.001597461436
0.0008110686418
0.0003136030302
-0.0007021301878
-0.0002009727555
0.001125972785
0.0003361955315
0.0004309510895
-0.0007098998762
-0.0006272660018
-0.0005333012443
-0.0003178626137
-0.0001743831507
-0.0001664571465
-0.0006312617875
-0.0003957898042
0.000150246189
0.0001698467676
0.0001193053696
0.0002530123064
0.0002494305763
0.0002659206352
0.1113978995
-0.3819502887
0.2545362853
-0.2788059534
0.04582213775
-0.03428175977
-0.04277087383
0.2922490875
-0.1833377276
0.03807025196
-0.0333049101
-0.1264968976
0.2523928371
-0.5384237036
0.2686126618
6.549581082e-06
-0.03843326683
-0.02591477131
-0.1249684524
0.1029460016
-0.007359807827
0.01015445096
-0.02563448286
0.1629274615
0.01341907168
0.01745351901
-0.01218982435
-0.005729550633
0.0738031764
0.05857889911
-0.02595318795
-0.005380821261
-0.03780001374
0.1872321267
-0.05790182451
-0.003050569706
-0.01778117158
-0.05615892721
0.009109651234
-0.07895746392
-0.001468554249
0.01339313064
-0.02546546045
0.1373666972
0.06173808698
-0.001457249713
-0.03962434317
0.01710603816
-0.08706391729
0.06262960987
0.01360284811
-0.01631408693
0.01302445328
0.003997763379
-0.006039137309
0.008264735852
0.006532245902
0.03075370377
0.008965074576
-0.0884903354
0.009901357901
0.009148766727
-0.03703443329
0.08875228186
0.01309870992
-0.01031685382
0.02926573899
0.00772331551
-0.04240201022
0.04620429961
0.003458277666
0.04521871373
0.02260839948
-0.04354562058
-0.03216226223
-0.01197416979
-0.01583048986
0.08584003558
0.03797476057
-0.1260459424
0.02980262312
0.01275301262
-0.05364280344
-0.1322334448
-0.1681475936
-0.02973504491
-0.04478640795
-0.05576872454
-0.1200382744
-0.4028068473
0.08688330523
0.1101126527
0.1234817345
0.1497659484
0.199541298
0.3438391024
0.5367259688
0.8630681609
1.368015544
1.021845937
0.6209881432
0.8361807241
1.115683841
1.598041724
2.422268895
0.8149051998
0.9930321922
1.176917023
1.404101234
1.689138851
0.8870474762
1.005170983
1.108754014
1.194130599
1.261457011
0.8878002794
0.9472888081
0.9899129626
1.011248455
1.006942426
0.8476283068
0.8660438981
0.8732227954
0.8621844084
0.8314062451
0.7694980031
0.7691808521
0.7574191191
0.7316856418
0.6919372232
0.6797564538
0.6687361089
0.6496634654
0.6189623197
0.5787782983
0.5769099975
0.5642445589
0.5419092792
0.5119277326
0.4745043209
0.4735161657
0.4599437146
0.4388153837
0.4111926678
0.3790592631
0.3757309629
0.3627414501
0.3441543388
0.3210102581
0.2945454596
0.2879989721
0.2771570233
0.2622166349
0.2440331059
0.2234679777
0.2131834735
0.2060041444
0.1949087502
0.181320285
0.1663399581
0.1546127369
0.1494561178
0.1417559888
0.1321593943
0.1217641335
0.1091391039
0.1062734085
0.1008153373
0.09470863001
0.08746816333
0.07587907175
0.07359879272
0.07039838761
0.06622838643
0.06164809538
0.05087544913
0.0498857347
0.04773158018
0.04529091272
0.04227990821
0.03336490722
0.03267739668
0.03163732339
0.02992476858
0.02828299915
0.02102095584
0.02088380086
0.02021308921
0.01934055854
0.01825298481
0.01328059385
0.01300844655
0.01253425653
0.01217381046
0.01146000773
0.008012887552
0.007886984978
0.007682926429
0.007437059982
0.007105003846
0.004768532219
0.004713464299
0.004724151478
0.004476410699
0.004371402898
0.00280486913
0.002896644985
0.002882088973
0.002763196514
0.00270313453
0.001694330946
0.001855840721
0.001798815419
0.001799347235
0.001702323703
0.001086006968
0.001258833206
0.00123006635
0.001197633008
0.001173724869
0.0008734455797
0.0009128632776
0.0008963786884
0.0008802929801
0.0008540863277
0.0007714585377
0.0007341005488
0.0006819245291
0.0007199135348
0.0006539161359
0.0006172265087
0.0006348155227
0.0005581480653
0.0006136875062
0.0005494233579
0.0004883755083
0.0005512958421
0.0005029645509
0.0005379716797
0.0004809624377
0.0003999458963
0.0004941005334
0.000475544571
0.0004643795668
0.0004550713837
0.0004287503978
0.0004389163486
0.0004595604333
0.0004095264017
0.0004322529239
0.0004283167865
0.0004265156248
0.0004102267587
0.0003997207796
0.0003925531821
0.0004933403641
0.0003968300304
0.0003866007807
0.0003847578155
0.0003696815995
0.0004294625037
0.0003837615661
0.0003630902888
0.0003775006396
0.0003464315036
0.0003063842857
0.0003658020741
0.0003636072266
0.0003477121495
0.0003468160956
0.0003581970731
0.0003564095052
0.0003448271627
0.0003463781998
0.0003304656325
0.000335224183
0.0003485512767
0.0003348715792
0.0003381684021
0.0003231888002
0.0004254694458
0.0003271324636
0.0003351613273
0.0003251727823
0.000318542522
0.0004084853568
0.0003222018416
0.0003270994895
0.0003171344495
0.0003138972864
0.0003909361853
0.0003165938075
0.0003174510776
0.0003142996087
0.0003044122024
0.0003609311542
0.0003140441886
0.0003087640452
0.0003036402211
0.0003026565273
0.0003467482808
0.0003006213203
0.0003023569011
0.0002994108151
0.00029201076
0.000340309247
0.0002841338825
0.0003017550625
0.0002873992039
0.0002857842878
0.0003648086313
0.0002814557839
0.0002840581336
0.0002840127504
0.0002756749006
0.0003319942686
0.0002723141627
0.0002746365905
0.0002722903172
0.0002677517439
0.0002732273277
0.000264348552
0.0002634740498
0.0002615042793
0.0002582325452
0.0002610210409
0.0002542049881
0.0002540946792
0.0002508219988
0.0002494046728
0.0002555719373
0.00024747042
0.0002443266743
0.0002449318262
0.0002418014061
0.0002365608586
0.000242136886
0.0002377846265
0.0002418577805
0.000237201845
0.0002288789138
0.0002334264239
0.0002327733919
0.0002352509771
0.0002340230231
0.0002110061119
0.0002164646993
0.0002175765956
0.0002183453635
0.0002189800834
-0.007027164263
-0.008397209874
-0.00173177942
-0.000286430221
-6.632319303e-05
-1.651434189e-05
-2.417469391e-06
8.426320287e-07
1.074205837e-06
6.462661194e-07
2.779680187e-07
6.993580378e-08
-2.640845244e-08
-6.54776974e-08
-7.996795928e-08
-8.512500529e-08
-8.696226955e-08
-8.76302736e-08
-8.790241379e-08
-8.801708242e-08
-8.805975732e-08
-8.807124204e-08
-8.807183723e-08
-8.80700756e-08
-8.807133629e-08
-8.807426588e-08
-8.80790587e-08
-8.808548411e-08
-8.809318817e-08
-8.810202641e-08
-8.811132842e-08
-8.812128087e-08
-8.813347194e-08
-8.814746765e-08
-8.816209812e-08
-8.817646396e-08
-8.819168737e-08
-8.820772688e-08
-8.822428472e-08
-8.824135682e-08
-8.82590963e-08
-8.827643189e-08
-8.829444439e-08
-8.831157583e-08
-8.832824038e-08
-8.83447002e-08
-8.836101844e-08
-8.837644655e-08
-8.839036426e-08
-8.840368203e-08
-8.841570146e-08
-8.842632656e-08
-8.843558328e-08
-8.844481151e-08
-8.846057173e-08
-8.85142204e-08
-8.869138086e-08
-8.905535985e-08
-8.922021055e-08
-8.961256915e-08
-0.01216242434
0.007210251621
0.0009866335729
0.0001723404765
4.985608956e-05
2.317906408e-05
1.227076375e-05
8.010317323e-06
4.753092239e-06
2.508484889e-06
1.163294832e-06
4.51899224e-07
1.120559027e-07
-3.780328857e-08
-1.006206566e-07
-1.265545257e-07
-1.375406454e-07
-1.424645332e-07
-1.44748245e-07
-1.458051733e-07
-1.462857986e-07
-1.465053921e-07
-1.465987492e-07
-1.466407243e-07
-1.466739404e-07
-1.467024408e-07
-1.467297353e-07
-1.467645297e-07
-1.467987312e-07
-1.468413329e-07
-1.46883264e-07
-1.469297775e-07
-1.469881308e-07
-1.470526751e-07
-1.471086954e-07
-1.471555081e-07
-1.472205971e-07
-1.472908521e-07
-1.473508148e-07
-1.474068425e-07
-1.474781533e-07
-1.475356755e-07
-1.476001661e-07
-1.476560207e-07
-1.477253718e-07
-1.477890114e-07
-1.478428161e-07
-1.478963418e-07
-1.479314465e-07
-1.479766051e-07
-1.48014289e-07
-1.480465588e-07
-1.480741991e-07
-1.481069573e-07
-1.48154812e-07
-1.483324015e-07
-1.489508259e-07
-1.510168824e-07
-1.564108494e-07
-1.629315733e-07
0.03082845703
0.03511882376
0.008070449405
0.001049323822
0.0002125090311
6.872570661e-05
3.039699575e-05
1.671058865e-05
9.456773102e-06
5.155378699e-06
2.654652331e-06
1.276415038e-06
5.59600798e-07
2.057082975e-07
3.616438694e-08
-4.4334068e-08
-8.31840545e-08
-1.024184958e-07
-1.11838378e-07
-1.163948277e-07
-1.185651665e-07
-1.195973038e-07
-1.201205472e-07
-1.204271258e-07
-1.206496966e-07
-1.208341866e-07
-1.209992348e-07
-1.211607357e-07
-1.213123025e-07
-1.214604316e-07
-1.216094142e-07
-1.217560244e-07
-1.21902302e-07
-1.220430282e-07
-1.221792748e-07
-1.223201749e-07
-1.224603343e-07
-1.225934993e-07
-1.227221189e-07
-1.228511922e-07
-1.229772885e-07
-1.230965406e-07
-1.232179693e-07
-1.233279334e-07
-1.234416884e-07
-1.23547654e-07
-1.236474056e-07
-1.237371296e-07
-1.238075793e-07
-1.238838527e-07
-1.239522643e-07
-1.240076482e-07
-1.240578455e-07
-1.241072927e-07
-1.241730539e-07
-1.243679671e-07
-1.249877426e-07
-1.268135764e-07
-1.305445356e-07
-1.334908997e-07
-0.04030039822
0.04026982382
0.02546719613
0.002897117042
0.0004315429305
0.0001124387434
4.456584444e-05
2.221714899e-05
1.234617844e-05
6.955938302e-06
3.85564474e-06
2.093263662e-06
1.11674936e-06
5.853759164e-07
2.981790439e-07
1.428632928e-07
5.830926499e-08
1.254278985e-08
-1.129793401e-08
-2.327005553e-08
-2.911291174e-08
-3.194617764e-08
-3.338527815e-08
-3.419478172e-08
-3.471985154e-08
-3.511048209e-08
-3.543421034e-08
-3.572209012e-08
-3.598665286e-08
-3.623352874e-08
-3.646575931e-08
-3.66847445e-08
-3.689231867e-08
-3.708826549e-08
-3.727235678e-08
-3.744967255e-08
-3.761979639e-08
-3.778203168e-08
-3.793754149e-08
-3.809084609e-08
-3.823806952e-08
-3.837323475e-08
-3.850510426e-08
-3.862760347e-08
-3.87462734e-08
-3.885500954e-08
-3.89570314e-08
-3.904734803e-08
-3.912819429e-08
-3.920151797e-08
-3.926665378e-08
-3.931794523e-08
-3.936281608e-08
-3.939782374e-08
-3.944031681e-08
-3.950085834e-08
-3.961423038e-08
-3.958855503e-08
-3.83430135e-08
-3.575141391e-08
-0.01230741252
0.05022247753
0.04565051328
0.009448112878
0.001152000574
0.000233006878
8.024721075e-05
3.624398324e-05
1.83756671e-05
9.80347716e-06
5.391133426e-06
3.063065496e-06
1.799771649e-06
1.075238878e-06
6.470238391e-07
3.887701449e-07
2.356236517e-07
1.48656989e-07
1.017724856e-07
7.761595965e-08
6.565488398e-08
5.986832406e-08
5.705330662e-08
5.562001844e-08
5.482261853e-08
5.431704399e-08
5.395024809e-08
5.365245549e-08
5.339481137e-08
5.316571907e-08
5.295616043e-08
5.276587885e-08
5.259269781e-08
5.243441899e-08
5.228997798e-08
5.215742223e-08
5.203397801e-08
5.191708397e-08
5.180533095e-08
5.169663197e-08
5.159335197e-08
5.149702735e-08
5.140402294e-08
5.131797277e-08
5.123563257e-08
5.116094669e-08
5.108825199e-08
5.102251839e-08
5.096116135e-08
5.091005612e-08
5.086430074e-08
5.083141154e-08
5.080298841e-08
5.079034075e-08
5.079092638e-08
5.087626306e-08
5.122692199e-08
5.256882087e-08
5.632046702e-08
6.074820811e-08
0.03782961004
0.07109226157
0.07551074774
0.03548725668
0.006613151619
0.001038694736
0.0002567384139
9.07267809e-05
3.86678274e-05
1.794965897e-05
8.808199403e-06
4.596985715e-06
2.573717765e-06
1.531603646e-06
9.376576008e-07
5.948761836e-07
3.865155619e-07
2.622122391e-07
1.915214894e-07
1.534127973e-07
1.339147888e-07
1.243397745e-07
1.197499118e-07
1.175532129e-07
1.164634313e-07
1.158809169e-07
1.155352193e-07
1.153000156e-07
1.151186487e-07
1.149749997e-07
1.148527039e-07
1.147483553e-07
1.146593061e-07
1.14584157e-07
1.145204246e-07
1.144655048e-07
1.144187063e-07
1.143758793e-07
1.143373564e-07
1.143006293e-07
1.142654317e-07
1.142315579e-07
1.141975696e-07
1.141641422e-07
1.141303408e-07
1.140974404e-07
1.140629705e-07
1.140296997e-07
1.139958365e-07
1.139651038e-07
1.139360853e-07
1.139168778e-07
1.138972135e-07
1.13894489e-07
1.139165501e-07
1.140461991e-07
1.14505693e-07
1.159530994e-07
1.192530798e-07
1.226069755e-07
0.06144163622
0.04017319084
0.04627196123
0.02827536065
0.02855573864
0.005231384919
0.0008769227181
0.0002354915164
8.492373114e-05
3.488828904e-05
1.530539688e-05
7.145640458e-06
3.630953996e-06
2.039024451e-06
1.243806481e-06
7.980796441e-07
5.283731269e-07
3.606086509e-07
2.609213469e-07
2.057476234e-07
1.762480656e-07
1.613065964e-07
1.540618073e-07
1.506551068e-07
1.490707361e-07
1.483221535e-07
1.479509557e-07
1.477541069e-07
1.476431654e-07
1.475718668e-07
1.475271884e-07
1.475000948e-07
1.474852936e-07
1.474812253e-07
1.474884515e-07
1.474981366e-07
1.475174596e-07
1.475368232e-07
1.475578732e-07
1.47579371e-07
1.475983971e-07
1.476159401e-07
1.476293225e-07
1.476375899e-07
1.476402238e-07
1.476398036e-07
1.476321525e-07
1.476212999e-07
1.476052176e-07
1.475854862e-07
1.475648455e-07
1.475442558e-07
1.475237894e-07
1.475140256e-07
1.475276474e-07
1.476176064e-07
1.479519701e-07
1.488999652e-07
1.508032013e-07
1.525898526e-07
0.01254275724
0.04069279591
0.01961124013
-0.04102218178
0.05005250976
0.03181649946
0.00416933262
0.0007524447111
0.0002115183472
7.58274395e-05
3.014634298e-05
1.268993575e-05
5.749211206e-06
2.91359585e-06
1.672033023e-06
1.049888853e-06
6.909438358e-07
4.691381343e-07
3.328958321e-07
2.523602004e-07
2.067182502e-07
1.832060568e-07
1.71606842e-07
1.660644327e-07
1.635382024e-07
1.623910539e-07
1.618814366e-07
1.616482912e-07
1.615514732e-07
1.615134067e-07
1.61507576e-07
1.615229246e-07
1.615500004e-07
1.615858381e-07
1.616293617e-07
1.616906712e-07
1.6174022e-07
1.618073729e-07
1.618615995e-07
1.619235115e-07
1.619767439e-07
1.620332092e-07
1.620747577e-07
1.621114332e-07
1.621432302e-07
1.621592904e-07
1.621679986e-07
1.621723726e-07
1.621721224e-07
1.621522815e-07
1.621222384e-07
1.621039057e-07
1.620764695e-07
1.620546882e-07
1.62046431e-07
1.620888472e-07
1.622591601e-07
1.627178219e-07
1.635696322e-07
1.643357235e-07
-0.04526291276
0.02121523473
0.05224655219
0.03930057616
0.08620438135
0.1453856886
0.02339694076
0.002698745568
0.0005586653757
0.0001728917268
6.323699666e-05
2.44003642e-05
9.904210873e-06
4.474647432e-06
2.347924808e-06
1.403390037e-06
9.038079182e-07
6.039152416e-07
4.174984139e-07
3.041266534e-07
2.382774322e-07
2.020830792e-07
1.833071318e-07
1.741684663e-07
1.69816803e-07
1.679042815e-07
1.670667665e-07
1.667069504e-07
1.665650996e-07
1.665133654e-07
1.664982358e-07
1.665374651e-07
1.665817578e-07
1.666241535e-07
1.666871529e-07
1.667761071e-07
1.668515052e-07
1.66918369e-07
1.670262798e-07
1.670865852e-07
1.671839652e-07
1.672344245e-07
1.673415662e-07
1.673745555e-07
1.674209644e-07
1.674567096e-07
1.674764773e-07
1.674848645e-07
1.674845872e-07
1.674717579e-07
1.674500643e-07
1.674219818e-07
1.673890174e-07
1.673582324e-07
1.673350152e-07
1.673367954e-07
1.673955259e-07
1.675732765e-07
1.679002847e-07
1.68197348e-07
0.01509002579
0.02707035481
0.01929796124
0.05852906953
0.15007459
0.4037801253
0.1286341069
0.01025789988
0.001430625841
0.0003689434938
0.0001234623664
4.45177042e-05
1.670469602e-05
6.881277864e-06
3.339434925e-06
1.904327298e-06
1.194922675e-06
7.834998951e-07
5.286208248e-07
3.712550184e-07
2.775656749e-07
2.24274698e-07
1.955128189e-07
1.808579216e-07
1.737860752e-07
1.705224273e-07
1.690617459e-07
1.684267235e-07
1.681620846e-07
1.680604095e-07
1.680315443e-07
1.6804299e-07
1.680788073e-07
1.681315356e-07
1.682000227e-07
1.682829919e-07
1.683740155e-07
1.684714862e-07
1.685728129e-07
1.686727105e-07
1.687634049e-07
1.688614235e-07
1.68940693e-07
1.690085519e-07
1.690662674e-07
1.691113981e-07
1.691430807e-07
1.691611347e-07
1.69165565e-07
1.691563835e-07
1.691356381e-07
1.691058195e-07
1.690703752e-07
1.690333816e-07
1.689998416e-07
1.689787867e-07
1.68983913e-07
1.690402638e-07
1.691622215e-07
1.692834194e-07
0.02977595035
-0.006251818845
0.007796570899
0.05848488103
0.1933615229
0.577500341
0.397602067
0.03447403567
0.003525131906
0.0007562709544
0.0002250077951
7.488135717e-05
2.631174258e-05
1.016384159e-05
4.670931482e-06
2.571022752e-06
1.586581252e-06
1.025832976e-06
6.783880391e-07
4.618222532e-07
3.305610777e-07
2.541542953e-07
2.117081988e-07
1.892907917e-07
1.780669371e-07
1.727206101e-07
1.702718149e-07
1.691816125e-07
1.687087187e-07
1.685102628e-07
1.684345664e-07
1.684199471e-07
1.684424992e-07
1.684901979e-07
1.685564332e-07
1.686377503e-07
1.6873133e-07
1.688342495e-07
1.689421786e-07
1.690510028e-07
1.691570032e-07
1.692587289e-07
1.693514303e-07
1.69432917e-07
1.695014761e-07
1.695570977e-07
1.69598395e-07
1.69623833e-07
1.696336307e-07
1.696281538e-07
1.696092636e-07
1.695795905e-07
1.695422852e-07
1.695015297e-07
1.694620331e-07
1.694300114e-07
1.694136912e-07
1.694269764e-07
1.69479632e-07
1.695404279e-07
0.01335495589
-0.01682578565
0.001662459501
0.1261681469
0.2833275253
0.7146363911
0.744114508
0.1334875673
0.01158144919
0.001764450418
0.0004221499305
0.0001234475474
4.006557939e-05
1.48048557e-05
6.613084128e-06
3.565487521e-06
2.156487891e-06
1.368626994e-06
8.804083677e-07
5.850207482e-07
4.035450413e-07
2.957687607e-07
2.344381634e-07
2.012348545e-07
1.840676687e-07
1.756264339e-07
1.71664335e-07
1.698651853e-07
1.690644146e-07
1.687145915e-07
1.6856733e-07
1.685146259e-07
1.685133991e-07
1.685457384e-07
1.686020473e-07
1.686768311e-07
1.687667694e-07
1.688686444e-07
1.689787323e-07
1.690925647e-07
1.692055746e-07
1.693146379e-07
1.694169474e-07
1.695087595e-07
1.695868844e-07
1.69651041e-07
1.696999282e-07
1.697317716e-07
1.697467211e-07
1.697450537e-07
1.697283334e-07
1.696993101e-07
1.696612365e-07
1.696183325e-07
1.695755393e-07
1.695385137e-07
1.695143819e-07
1.695139234e-07
1.69543095e-07
1.695814264e-07
-0.00180962538
0.01351736222
0.0354107388
0.1704338909
0.3913011031
0.8314034397
1.064544425
0.3839008776
0.02715169931
0.003682598156
0.0007364581229
0.0001866596401
5.584081314e-05
2.003860121e-05
8.931625372e-06
4.807013016e-06
2.887541709e-06
1.821810421e-06
1.165618511e-06
7.462376303e-07
5.00497108e-07
3.521891776e-07
2.658712497e-07
2.180122682e-07
1.926370097e-07
1.798303281e-07
1.736656118e-07
1.708070322e-07
1.695138751e-07
1.689377929e-07
1.686834526e-07
1.685757375e-07
1.685416868e-07
1.68551416e-07
1.685916145e-07
1.686549876e-07
1.687369571e-07
1.688337687e-07
1.689416745e-07
1.690564639e-07
1.691730496e-07
1.692870619e-07
1.693955058e-07
1.694947625e-07
1.695805962e-07
1.696515922e-07
1.697068483e-07
1.697444425e-07
1.697640502e-07
1.69765953e-07
1.697515564e-07
1.697235262e-07
1.696854177e-07
1.696415305e-07
1.695970171e-07
1.69557728e-07
1.695308209e-07
1.695257376e-07
1.695446732e-07
1.695723087e-07
-0.03150842263
0.08902193571
0.1171231262
0.334048834
0.5974951104
1.072513434
1.416963817
0.7093869697
0.07896697775
0.007984080485
0.001230144648
0.0002732922794
7.691537612e-05
2.699896854e-05
1.197600938e-05
6.400397855e-06
3.803283153e-06
2.377482018e-06
1.511720902e-06
9.503516142e-07
6.232928042e-07
4.244929439e-07
3.070945156e-07
2.404901666e-07
2.043452375e-07
1.856789463e-07
1.764889814e-07
1.721452865e-07
1.701525548e-07
1.692520674e-07
1.688456033e-07
1.686631795e-07
1.685876319e-07
1.685698488e-07
1.685895583e-07
1.686375819e-07
1.687082359e-07
1.687969416e-07
1.688995098e-07
1.690116821e-07
1.691284989e-07
1.692448234e-07
1.693566658e-07
1.694605682e-07
1.695522056e-07
1.696285522e-07
1.696888071e-07
1.697311734e-07
1.697546587e-07
1.697597577e-07
1.697476277e-07
1.697209262e-07
1.696833556e-07
1.696393411e-07
1.69594232e-07
1.695541322e-07
1.695263544e-07
1.695191892e-07
1.695313048e-07
1.695501987e-07
0.04553697229
0.03916503611
0.1937940978
0.509309447
0.9280309532
1.539590421
1.820648772
1.01559039
0.1564433957
0.01778236574
0.002246767874
0.0004109507785
0.0001047890348
3.56120719e-05
1.56227111e-05
8.235955125e-06
4.802988615e-06
2.979837961e-06
1.865957006e-06
1.169647464e-06
7.614453758e-07
5.085994573e-07
3.563242176e-07
2.679438902e-07
2.189729982e-07
1.931347904e-07
1.801452302e-07
1.738985094e-07
1.709963947e-07
1.696709048e-07
1.690639227e-07
1.687836603e-07
1.686567116e-07
1.686074374e-07
1.686044587e-07
1.686351603e-07
1.686925693e-07
1.687712558e-07
1.688664376e-07
1.68973644e-07
1.690881484e-07
1.692044656e-07
1.693176009e-07
1.694238858e-07
1.695191718e-07
1.695994241e-07
1.696633895e-07
1.697093147e-07
1.697360052e-07
1.697438272e-07
1.697338305e-07
1.697086805e-07
1.696721441e-07
1.696287678e-07
1.695839688e-07
1.695440281e-07
1.69516318e-07
1.695078839e-07
1.695140757e-07
1.695226982e-07
-0.07317217791
0.08218857853
0.2803912574
0.9254719679
1.593378972
2.280392855
2.223849337
1.204790268
0.2475259557
0.03591692672
0.004279419906
0.0006407303937
0.0001416461248
4.52350323e-05
1.92382588e-05
9.923232254e-06
5.658148109e-06
3.439678041e-06
2.118597907e-06
1.370441067e-06
8.961528625e-07
5.944401448e-07
4.079664181e-07
2.975206597e-07
2.351436765e-07
2.016012835e-07
1.844124646e-07
1.759878536e-07
1.720069413e-07
1.701676554e-07
1.693205319e-07