/*--------------------------------*- C++ -*----------------------------------*\
  =========                 |
  \\      /  F ield         | OpenFOAM: The Open Source CFD Toolbox
   \\    /   O peration     | Website:  https://openfoam.org
    \\  /    A nd           | Version:  10
     \\/     M anipulation  |
\*---------------------------------------------------------------------------*/
FoamFile
{
    format      ascii;
    class       volScalarField;
    location    "0.02498436188";
    object      ddt0(rho,h);
}
// * * * * * * * * * * * * * * * * * * * * * * * * * * * * * * * * * * * * * //

dimensions      [1 -1 -3 0 0 0 0];

internalField   nonuniform List<scalar> 
5170
(
-105626.4146
73818.01714
-3581.406871
-59795.2995
-106818.5578
-34958.457
-29351.01035
-27341.95401
3981.558507
13218.44293
-1618.292786
-5913.918609
2093.445421
25522.17623
-6822.611344
-6425.130546
-10631.63881
-5681.248479
-9914.639777
-8957.876869
-9852.990577
-11967.62207
-9235.375995
-34662.20697
-10515.9629
-11835.75895
-12684.33443
-11190.42892
-14479.82514
-8321.154555
-12021.62698
-14454.25287
-13230.17521
-35281.83862
-9101.390795
-16588.47094
-14057.80238
-12812.63613
-11821.3017
-8051.296733
-14884.84181
-13851.3651
9854.823737
-20517.02529
-10204.31455
-10360.21204
-11858.50473
16228.35088
-11192.06844
-4920.30195
-8435.271126
-9449.227168
-51552.69799
-8797.773426
-5437.26282
-7749.439499
-7119.214516
16290.43911
-7181.93681
1516.690149
-6383.815095
-3834.186858
-36668.83899
-5229.203478
-5808.061837
-1948.897317
-1257.406595
30251.04073
-2170.532382
8122.169118
897.0450561
279.9996102
-28855.22176
20.17779688
-3692.215808
761.2858344
1560.197757
18732.50174
604.8668682
12816.95808
1333.686247
1742.10193
-19964.14123
939.2612
-6100.652662
12574.17118
35698.28414
34509.54648
8325.536548
29429.03464
-54102.27839
-25961.90359
-15069.65924
-596.4332675
-60832.21583
-290767.825
-346002.8061
-190062.322
-108239.4337
-298123.7231
69715.44856
26061.37903
-92938.6041
169020.743
-213197.9842
-41893.27417
-49573.2135
-194791.1199
-50342.66191
195434.0847
35131.44856
-64195.74036
26020.64801
-14377.41024
19324.18936
-17859.50979
-2320.556514
-43756.37438
7813.490779
-6893.85722
5037.016213
-2045.095694
25785.60774
30440.17948
50686.98703
36261.3458
58002.8276
44440.1106
39848.83838
39865.05642
1898.470451
-7453.386677
-28495.78313
-6633.979065
14521.26274
-5244.005937
-9241.335514
-11741.02375
17775.59591
6020.746777
-24420.20217
45226.96996
40490.75163
-2001.222739
3584.127813
39575.35131
-37474.66118
-19341.53933
-7754.571577
-13391.1448
-28103.6115
-27289.41202
-23655.46551
-68524.89212
-26898.83138
-20697.59503
-7641.207879
-163.4665559
-16589.16261
-35562.21031
-29550.81939
-9369.950548
-28339.21205
-29531.36096
-7851.231386
83654.14131
-149375.8275
-3202.991991
156515.9264
-95878.82402
-288068.0843
445941.8344
-349898.9523
131765.22
4209.537401
7575.121487
230106.3862
-543022.5474
27289.71729
230754.6564
-106916.2037
397229.4843
-338604.3993
-582988.5777
590511.7823
57802.76245
71892.84118
-88284.87874
-134864.1348
33981.47924
-184036.7463
-287316.2101
165425.6607
693041.553
-465556.3638
1798242.986
-1872277.131
-905850.2473
2036555.584
-824350.3494
-88684.4484
-396941.7865
-360376.7721
-401244.9662
-120573.8938
-310020.6663
213045.3007
-159069.3583
-70036.37367
-783333.7243
37192.65523
-119478.9684
-156760.9227
19120.92854
-787519.3741
363569.482
-95689.11357
458410.6076
870443.168
110978.2144
9392.624507
20140.31273
375503.5735
907115.625
1036894.963
-43948.92414
-254536.2406
-443953.3837
118357.6378
405909.4586
-110077.6137
-179144.2841
-500383.712
-574692.6608
-340121.485
-268233.498
-50432.29455
-52430.57972
-459017.5141
-732659.9069
-317986.1398
412746.1523
205591.8809
-34912.90158
-329299.5588
25770.58952
-14277.99415
-45039.43024
-222098.7873
-109234.3409
-264914.086
-639521.0566
-680097.8904
-396965.1507
-5146.603194
-2523335.914
-1842983.748
-1266194.85
-913704.9949
-449150.0706
-1337500.91
-1006469.89
-722507.2593
-555546.1347
-538748.6688
212272.2222
64235.96397
328314.8074
393904.4538
144729.6932
1158932.644
989397.2124
1034037.838
737606.319
293993.4109
1740216.776
1297079.869
1180285.436
1144401.189
1103443.218
79815.95969
15541.81298
75608.74561
285136.5953
383331.7539
187175.1374
211236.9544
118641.7796
-119326.8954
-592692.9692
499897.694
461700.6664
292172.0882
296277.12
446222.438
-20315.54096
428813.1431
1060069.015
2430355.673
4674012.724
827432.4032
1856452.933
4171685.409
7553318.715
11441840.9
7644871.637
8869190.524
11508251.95
14679445.4
18254373.28
15717472.67
16584071.36
18054831.86
20069341.61
22454792.01
20775145.01
21226938.29
22016495.99
23132165.58
24251765.3
22720771.55
22952645.27
23241390.43
23618221.95
24270841.05
21978392.35
22026782.78
22144225.62
22226058.02
22390192.97
20076721.63
20116280.57
20091525.72
20033931.93
20052711.4
17640211.5
17550474.01
17529244.97
17408366.35
17233386.34
14865686.97
14795407.4
14737225
14592803.33
14387554.24
12082390.76
12063564.08
11973088.34
11831983.44
11657417.4
9536900.736
9494466.97
9426243.295
9299929.388
9152874.526
7291386.97
7263165.6
7201732.572
7110300.584
6973565.373
5430189.071
5404831.925
5362017.04
5293635.834
5196065.902
3927682.914
3915514.446
3885403.838
3835611.211
3774805.425
2759651.411
2752219.227
2732315.818
2700593.123
2658782.378
1875701.338
1869539.815
1857953.861
1836260.601
1815105.493
1226073.435
1223281.419
1217407.267
1204823.007
1189410.976
774921.3608
770043.0959
767375.3106
760067.8254
754100.9962
466167.6063
470178.7938
467682.4946
460851.4465
457211.5486
278213.4804
275527.9326
273223.9967
275088.8825
268452.8107
161112.6638
158070.2645
158033.8231
158482.3296
155757.8525
90377.65299
91318.48254
91498.27185
89538.49389
91468.53878
57760.2344
52024.20728
52878.57254
53581.99137
57281.13736
34984.6945
33058.02562
32784.4386
32481.47862
37749.30335
25046.80292
21585.55655
21961.52614
22927.53246
24171.55121
16879.75264
16998.20234
16869.72607
16616.25923
14564.13728
16588.16323
13148.42919
13214.56491
13604.77075
14347.7447
13888.88134
11959.47217
11295.45124
12310.33635
13137.67527
12389.72817
10334.85769
10632.46784
10658.86202
13991.48848
10233.08571
9804.465315
9589.432997
10360.06482
11060.02256
8563.786527
9753.711886
8723.783784
9525.419756
6661.165028
7749.785635
8458.885685
9137.166584
8249.727077
3961.090887
11138.7715
7333.663709
6347.206162
9390.92022
5610.683694
6149.673252
7789.913094
7483.96972
6770.737189
11051.38979
11312.78857
4822.072527
8051.288613
6715.851655
7065.999635
9119.270007
6227.098358
6308.832768
7376.024253
6401.433873
5163.682711
7054.383682
6620.494289
7604.621444
-39.76886186
5454.830628
6695.810199
6488.751935
7203.464767
77.95030626
5804.076189
6303.834688
6494.647143
6764.77648
361.3932301
6104.28365
6032.126048
5941.774595
6989.12025
831.2573234
5909.015935
5868.746336
5842.115039
6583.692906
3015.757501
5100.706864
5582.523178
6228.122476
6385.611226
3021.08074
5442.095008
5541.375222
6264.432893
6446.850137
-135.3671999
6742.165289
5848.496164
5748.570263
7347.171539
1072.112246
5112.170179
6706.675693
5306.612835
6217.379993
4874.835231
6684.703197
5592.550054
5696.136271
6313.502249
4890.22022
5986.125505
5772.234227
5951.375337
5751.89627
4746.675158
6291.065531
5333.782208
5762.326312
5716.16126
5837.956972
5488.614262
5055.770467
5450.918582
5086.405315
5606.813149
5225.802247
4706.079192
4813.876042
4889.503521
5351.84181
-6587028.59
4323387.99
1430285.528
3218112.94
415183.0072
741457.9541
-553638.2425
-758332.6611
-425085.8616
-111677.7368
105105.1104
-287112.303
578242.9734
308991.1302
642365.8578
-842089.2594
1315860.319
-967300.0859
1139849.669
6345325.03
14525525.67
20717683.91
23848474.6
25569099.67
23951065.49
22370855.85
19723014.01
17185835.58
14305238.21
11500806.55
9008837.026
6931643.819
5152382.971
3725701.133
2632412.225
1783642.474
1178106.77
738476.5489
464214.4204
274986.1649
157534.1776
87414.34829
37040.79605
16336.33715
14557.72198
25359.38388
11900.37735
8746.440072
-634.5074091
3817.077904
19099.18676
25334.42878
13335.36536
-6410.65297
8215.227651
7893.788749
30379.36606
29488.63387
27730.4624
24717.3784
15575.72507
14675.19056
27055.09056
23126.31224
9507.346502
9057.476853
10333.28205
4655.484875
4221.711055
2862.723421
350226.3181
-6010184.784
3607914.016
-4096936.529
432387.3744
-1477406.844
-1535929.666
4485166.647
-2669325.142
436541.7807
-1381614.033
-2684312.277
5270446.947
-7544898.724
3952083.804
-452997.1777
-422454.6412
-1203627.217
-1961911.421
1327436.988
-338347.3411
-192743.0425
-1467698.9
1781849.064
46244.48171
57793.09758
-466502.3424
-818504.9839
523000.0024
614623.7319
-739947.9239
-184430.6723
-115511.6078
945917.4303
-562754.3257
-270484.8615
-392215.9602
-1651541.934
595439.0261
-722402.9841
-206304.6209
147564.7089
-600032.1351
-242350.9829
663236.0917
-49292.75754
-596872.3786
780799.5185
-1083574.165
1202209.549
208633.4464
-264289.1173
99508.48869
-260842.2732
-301679.6109
43710.52116
32833.71121
510429.4454
587309.6184
752679.3045
111770.2886
-310679.8322
-767849.853
1739216.298
492979.4015
-80297.05713
712588.2997
233648.2445
-769050.307
817650.8785
218998.2531
1079384.486
583734.2311
-672875.9132
441747.1245
16744.23246
59711.19346
1876074.874
1435342.538
-551940.8814
763356.8071
868943.2424
192292.7152
-583372.7437
1448253.759
-926084.6111
-1077408.531
-669255.1288
-29093.68558
-158449.6915
960900.429
949833.0473
398870.1991
-249974.0132
-19124.437
8802126.73
14336188.72
24301092.24
44631523.5
80112839.16
17713501.96
24121652.66
32578533.23
45868889.13
64929868.23
23947268.21
29164099.61
34687459.45
41183681.11
48080320.9
26377928.96
29857317.07
32879224.5
35265624.95
36797323.97
26477563.78
28194291.83
29407799.76
29919108.81
29580019.15
25080172.42
25659240.71
25832431.19
25439865.17
24436197.6
22653108.63
22655384.35
22289122.32
21506058.22
20307385.84
19963491.39
19670453.96
19097641.06
18198922.24
17018580.67
17041433.93
16664266.95
16016914.68
15140326.57
14058145.5
14141880.35
13735988.79
13116546.32
12316473.3
11380258.52
11395555.63
11016507.02
10470057.92
9789913.57
9014977.149
8924678.663
8607329.5
8160549.659
7616431.867
7005976.769
6810213.35
6568193.318
6226519.655
5813881.824
5355336.816
5076499.123
4902196.836
4654632.168
4356030.591
4023646.524
3691983.804
3572695.101
3402018.06
3192658.443
2960368.948
2608982.828
2532614.428
2417998.804
2277807.859
2120156.485
1784245.252
1736336.588
1664276.988
1572910.003
1469940.712
1174976.772
1149050.25
1104526.342
1048325.9
981736.973
747256.2423
731663.0599
705869.7337
671797.5494
632334.6481
455889.7194
448834.0855
435711.6448
415048.9503
393029.667
269939.4499
267243.2735
260045.7749
248998.3166
236560.9796
156679.1727
155817.0096
151554.5443
146834.1666
139165.3129
91050.89449
90268.33159
88006.45543
85474.55488
81358.3829
54844.69127
53038.00055
52146.09747
50333.11829
48742.36144
34615.07342
32688.21323
32398.1568
31570.36393
30320.49131
22879.50609
22171.64204
21843.30775
21250.26224
20839.51899
15993.30934
16218.51602
16457.11479
15688.19668
15829.83964
13686.04103
13097.00306
13946.81908
12480.25965
12806.55178
12407.30489
11449.5491
11817.61121
10747.59143
11151.62728
11649.95214
10420.25249
10177.51474
10100.82126
9596.799142
10108.87124
9768.581655
8978.716094
9470.555646
8539.362
8277.258863
8712.48047
8495.504027
8476.227113
7974.185074
6810.089467
8081.602652
7936.809307
7688.39624
7451.498053
7146.015619
7438.881016
7553.894311
7136.213882
7416.455215
8368.706967
7567.467081
7095.328594
7019.964525
6634.105437
6987.734686
6855.663634
6778.804934
6489.336849
6445.336501
6704.128189
6509.38794
6542.361738
6223.115345
6217.453276
4509.965836
6566.251698
6216.811098
6176.406453
6005.670845
4424.167325
6355.977098
6079.64926
6079.462048
5852.185984
4444.107592
6185.681099
6015.424984
5865.42434
5859.121972
4636.149591
5966.141521
5939.499337
5889.459244
5678.17855
5037.867433
5961.098476
5849.780446
5705.537244
5746.458663
4913.72694
6087.871903
5628.707864
5774.871474
5750.50745
3928.129241
6005.622713
6064.668559
5986.558974
6048.675816
4660.766343
6209.551093
5864.71234
5789.75886
5760.660262
5656.297815
5887.929608
5864.976429
5798.886374
5751.49744
5653.919767
5885.835942
5838.959076
5831.803663
5729.193318
5467.651585
5771.911159
5871.162704
5746.916374
5734.224057
5803.026916
5633.776005
5719.963887
5550.651234
5613.037576
5392.143422
5295.680988
5363.713384
5303.780807
5356.348811
5037.714415
4905.848846
4880.213813
4909.97511
4905.630763
-138622.0354
-191582.0993
-29324.46125
-11274.8526
-3131.020064
3810.049356
-1915.920165
1831.626691
-401.2200464
927.5360727
145.791505
533.2512505
1512.630392
1192.169199
1062.656402
1242.132692
1238.209247
1379.578601
1482.691543
1570.041859
1695.371809
1785.629992
1886.380857
1987.401948
2069.855385
2141.64064
2206.433215
2261.460212
2300.265281
2315.262161
2307.567105
2284.7638
2252.381269
2206.373506
2141.045419
2052.216902
1936.994549
1794.712992
1628.805265
1445.711944
1252.138906
1037.962177
830.3227309
637.1010987
436.0283957
241.4713037
65.30944387
-84.41758634
-219.7272547
-325.1413191
-402.0651265
-453.9890144
-479.1986723
-476.8640562
-449.9376851
-405.8835781
-352.0492686
-293.6324908
-201.7916024
-157.140738
-212974.4435
32807.05817
13334.72813
-9648.606467
4581.89944
-5935.853854
1640.884027
-625.5910568
-201.5606748
-766.1289542
-470.3937134
-374.8317576
-297.2665585
-10.32074723
304.9920091
137.9574629
22.10200369
244.0911592
355.6055023
384.3285475
503.9984362
642.8365047
749.0115252
844.4323588
940.3109337
1024.486796
1102.332775
1163.045514
1207.948375
1241.030263
1260.526274
1264.11218
1248.867136
1213.003937
1153.998166
1071.766334
967.1173356
841.1462521
695.6618779
533.60102
357.2678808
171.0390988
-24.85199007
-225.9215163
-420.5751564
-604.572718
-775.4062666
-925.5274754
-1053.035375
-1156.807631
-1233.7668
-1283.641364
-1305.206963
-1303.041643
-1275.645606
-1229.916471
-1179.946367
-1124.78541
-1064.972825
-1056.561421
445378.829
643033.2789
137527.5954
16459.55353
-1735.609448
1175.578052
-4148.207479
504.0867009
-151.5426932
-1422.977182
-150.5267334
-1050.072863
-721.9604145
-792.2317829
-550.1568784
-359.6274021
-514.7620913
-491.0509715
-374.0782844
-280.1054129
-160.8043807
-61.18910912
51.79708939
160.3574419
259.207678
360.5853554
455.1287813
535.9329729
607.3250203
669.4586869
719.0747004
751.3048836
767.8830767
766.0058592
744.2881102
700.4492918
634.0868859
547.3657621
440.3195714
313.7974747
170.559164
12.87934472
-155.690557
-329.6497803
-504.896975
-675.6672635
-836.4082939
-982.687082
-1109.939513
-1216.640706
-1301.395201
-1359.38363
-1394.066933
-1404.764122
-1391.961298
-1362.84989
-1322.352185
-1270.419632
-1207.660653
-1119.409497
-709622.7626
627409.8477
485149.6595
51405.81911
6334.071097
128.5916462
-240.0763163
-124.1051667
-1680.983028
-377.586863
-1351.629261
-1558.376169
-848.0013822
-917.400264
-897.1607317
-913.7426432
-882.3509937
-897.7801149
-826.2027133
-719.9295315
-646.0144263
-553.9623623
-444.1503789
-332.2836187
-219.9861954
-113.2851385
-4.731046268
100.4264687
199.2389251
293.5249963
378.2196979
452.0018492
513.85556
560.8558748
589.6855035
599.9359341
588.4720712
556.1388302
502.6182469
427.726114
332.8983266
219.9755349
92.7744868
-47.21609469
-193.7413394
-343.4976247
-489.7232018
-628.421257
-753.979268
-866.1218855
-960.3958234
-1031.171697
-1083.947399
-1112.319448
-1120.616654
-1116.089319
-1085.632347
-1057.065311
-1002.601636
-909.7424024
-209694.6985
784819.4909
833416.8166
177745.5817
22163.52062
3776.997417
-944.1999401
552.2788493
-1441.491357
-1317.62413
-957.4686265
-1529.517754
-1356.298935
-943.6145615
-1230.855547
-1520.890689
-1319.005725
-1174.243575
-1257.496815
-1223.458625
-1136.850386
-1051.010989
-972.3196605
-863.6262645
-744.817348
-627.0182526
-508.5374996
-381.947041
-250.7696414
-124.0121186
6.675789344
130.4335694
245.8655729
349.6986631
442.4990976
516.4138762
572.9242146
610.5328474
624.2713122
617.136099
584.8791724
529.2402563
453.7079265
358.7823306
248.7575467
128.4086312
1.075001248
-127.6566674
-252.7943055
-371.578685
-471.6211599
-562.0029474
-641.2153757
-688.2314932
-729.5130456
-747.98632
-753.661985
-734.4884284
-666.1022945
-595.4233391
602194.419
1188792.429
1318961.294
655089.8976
129517.9878
20132.46051
3377.566134
705.0959558
-695.0359594
-311.232481
-1297.948544
-1552.54848
-1469.986398
-1506.857617
-1659.790843
-1591.218647
-1837.799888
-1767.165544
-1693.507041
-1721.282114
-1698.086831
-1649.756615
-1591.126733
-1511.434674
-1412.679044
-1287.19695
-1153.458209
-1015.691016
-861.6400601
-696.5807942
-525.7794446
-353.8370337
-177.2565286
-7.491219788
147.3295915
298.9292905
429.3705109
545.9560255
633.9345595
699.819517
744.4429142
756.4423958
739.7884563
703.0725938
637.3937536
552.2771067
449.6711607
334.2570055
208.6822762
92.14019666
-23.39498607
-145.4726161
-234.3594425
-321.8674218
-400.065498
-428.6876096
-466.7264419
-477.1980516
-477.3297539
-380.7168734
1017864.686
599120.0832
676350.2157
376896.4755
545498.1021
102836.5767
16542.10034
3141.544071
1050.787445
-365.8304907
-657.139479
-1570.635484
-1319.530459
-1573.814683
-2159.68921
-1890.635843
-1981.850481
-2184.604441
-2238.57264
-2159.141645
-2294.088263
-2287.75132
-2224.993506
-2172.113277
-2145.087687
-2068.036299
-1926.371048
-1768.875311
-1618.591213
-1417.603249
-1218.907729
-1001.211198
-770.4378073
-534.2571314
-313.7688772
-76.70540399
122.3964608
316.7114687
491.6575613
634.9049726
755.3986193
839.9601864
896.7022867
921.7790868
911.2473199
858.6469576
790.7480096
695.5413393
581.8602814
450.831354
308.191089
178.6871116
53.55498613
-50.75702944
-186.6049937
-247.662659
-308.4868171
-355.8196493
-347.5193907
-319.2523551
204963.3683
480340.1165
33563.66715
-1091925.673
840092.4057
638436.9245
82282.86429
15646.8644
4105.327078
1139.370038
149.593401
-232.1119091
-2384.403809
-1488.191296
-1194.502296
-2298.582671
-2330.317408
-2099.158692
-2450.082042
-2688.572899
-2490.786715
-3004.578323
-2853.393624
-2669.161279
-2780.558921
-2747.135371
-2699.61052
-2554.411006
-2405.334243
-2215.744085
-1997.990498
-1750.817736
-1479.633247
-1172.734525
-850.326528
-623.5941607
-277.7702188
-53.53973901
238.9511958
453.0021668
666.8645413
801.2567815
947.3963267
1033.059885
1048.575867
1076.052923
1043.407928
950.3990065
859.0207315
695.3177522
604.5302792
407.1925533
245.93735
94.98842415
-37.46944735
-154.0423378
-261.8512614
-328.4919531
-357.4302761
-348.2034786
-644258.3146
156354.6377
571706.8025
334163.0641
1357249.678
2844306.253
472986.8443
55439.56223
11682.29655
6478.085167
-1234.525646
-186.9110359
1698.577833
-2402.92012
-1816.383303
-782.9143529
-1963.52948
-2705.883309
-2272.183592
-2325.340702
-2786.708463
-2926.722506
-3027.061629
-3493.964413
-3243.853501
-3345.38832
-3304.750482
-3215.47241
-3130.594159
-2954.237902
-2655.245646
-2496.78604
-2230.740551
-1854.957418
-1486.032094
-1196.946489
-850.6979166
-361.5612984
-214.0669989
307.8997713
391.699925
855.849421
849.8340695
1105.504668
1179.580996
1200.945382
1203.692987
1159.378884
1055.415241
915.4047186
751.8003265
569.4176068
386.2078206
200.8062819
25.71356325
-128.8563041
-258.0291288
-357.3967834
-420.8807774
-428.9641247
262945.2348
300577.356
-3843.965355
553416.0619
2391503.462
7762240.913
2591257.453
213032.6088
26422.04921
9581.14733
8178.696995
-2439.154336
-72.80179419
2228.11529
-788.1781184
-1699.664078
-1001.629626
-1743.922614
-2368.942672
-2203.398939
-2497.943032
-2898.893904
-3108.679853
-3284.4625
-3465.845706
-3608.276442
-3655.636794
-3648.82491
-3616.542519
-3537.804623
-3378.586751
-3147.599264
-2853.285478
-2499.044731
-2108.69476
-1700.537166
-1270.22308
-841.6419061
-443.7010893
-52.69534205
331.7378407
580.1749286
840.3772256
1051.583001
1196.837883
1285.698574
1317.244557
1286.426393
1196.346396
1059.786886
886.7527097
690.0405685
476.828369
261.2426997
53.07623383
-136.7370436
-297.524163
-425.402031
-512.5503297
-536.1428869
193461.3511
-456085.7537
-216971.8616
437916.3233
2906837.517
10842008.03
7953896.915
709791.7777
79119.52134
16835.40336
5852.557325
3679.880269
4306.428368
1567.223764
-315.9697
226.4299858
288.9118292
-1193.221706
-1701.019864
-1851.968345
-1916.071588
-2311.898102
-2777.985748
-3105.388061
-3384.782767
-3624.845719
-3799.758548
-3898.627968
-3938.14566
-3912.4309
-3797.784789
-3596.004938
-3323.3802
-2989.331675
-2599.861208
-2165.202021
-1702.28601
-1235.429111
-778.7195255
-337.9903981
74.32594363
430.950485
738.8323736
992.0624877
1187.55126
1315.130637
1372.837942
1363.16272
1288.225105
1157.569272
979.8135294
767.4312069
532.8799165
290.4055929
53.30829357
-166.9568892
-358.036398
-512.5908695
-620.5242298
-658.3113565
-612168.4884
-327844.7257
-338136.2336
1264142.011
4234546.71
13086893.85
14792236.3
2715795.125
256591.7981
46538.1282
5715.279279
10501.25109
3943.091955
971.051954
5028.833016
4007.751295
636.443209
121.0898297
-728.5640265
-673.5930826
-1363.344779
-1744.416534
-2000.539084
-2596.176606
-3037.687491
-3343.161659
-3635.005895
-3864.0347
-3999.149145
-4052.780705
-4015.944664
-3879.106621
-3653.17912
-3352.019787
-2983.199566
-2555.848414
-2085.495949
-1593.521682
-1102.058266
-624.0901632
-168.7739435
245.5409854
601.5306676
897.0287832
1132.432403
1295.250835
1382.372354
1395.877757
1335.885364
1210.951746
1031.223187
808.2659107
557.0051702
292.8671105
30.95984313
-215.07832
-431.6695334
-609.3827934
-736.1456803
-785.8905855
-188312.2237
93942.84705
102652.6804
1656285.724
5795889.973
14800398.69
20929716.99
7894027.602
599327.1456
71521.81835
19407.02446
15329.97833
3492.096189
4069.21369
6380.602241
4306.228366
2858.453222
2102.131491
1909.332003
949.2598802
62.04415637
-787.2623953
-1191.863181
-1674.910721
-2227.465743
-2740.368214
-3200.277068
-3552.869467
-3802.65117
-3968.294174
-4034.212244
-3987.404487
-3834.421463
-3587.29484
-3257.244385
-2857.015609
-2400.860388
-1906.306709
-1397.204216
-895.3762336
-411.8480555
40.1485551
438.1190803
771.17626
1039.94513
1235.466221
1350.128465
1384.360204
1339.659191
1222.254224
1043.090822
814.4374695
551.3721863
270.8516781
-10.44021191
-277.0582311
-514.0738115
-710.6336434
-853.1924868
-912.3993251
-603840.2868
1074277.646
1525427.521
3442253.677
8712815.442
18954581.3
27699311.88
14619716.48
1698553.719
192609.8585
18897.4905
6505.557454
10178.4692
12384.91422
9168.622045
3692.869644
2144.697677
3416.564661
4011.51645
3226.349421
1811.200851
977.6642003
152.3397462
-574.6422622
-1237.070119
-1924.948905
-2552.705292
-3046.443403
-3421.16662
-3697.950375
-3869.929562
-3928.158158
-3870.933277
-3701.025846
-3428.045584
-3069.1723
-2643.179917
-2165.969217
-1657.981326
-1144.353445
-644.0589346
-169.4523443
259.6516469
623.9784746
919.4098689
1141.622603
1280.122826
1332.92685
1303.325099
1195.092883
1019.288318
788.9043041
519.2009101
228.0766551
-66.88349591
-348.5125279
-600.5879943
-811.2357266
-965.7632704
-1031.999164
183537.4425
443475.1487
2262795.713
5279642.024
13662058.29
27289772.5
35622053
21096797.13
3391553.487
404267.6429
44496.32491
21770.4627
17748.74832
8316.736405
5263.606666
7509.465892
7749.156887
6861.300912
5354.290021
3948.156548
3228.370922
2541.5155
1563.529268
580.3901098
-279.6695051
-1031.243328
-1712.063319
-2339.22989
-2885.038018
-3306.659497
-3592.796363
-3754.003975
-3794.919279
-3712.415835
-3509.11733
-3203.766167
-2817.925124
-2369.71913
-1876.910655
-1364.189988
-857.3570838
-371.8792057
76.2009911
464.0534587
780.3281677
1022.887672
1180.745139
1250.256935
1234.408865
1135.936803
965.9655491
737.4063779
465.669786
169.1446854
-133.6126005
-424.3750242
-685.9495679
-905.7578422
-1068.221524
-1138.728581
-1341999.732
3045559.963
4150313.402
9876828.459
24428670.46
41374797.4
44100450.67
25377642.72
5443568.36
816484.7553
97709.79661
23089.86372
15611.73982
11635.03882
7715.94923
8552.700574
8962.52504
9716.888547
7425.995806
5576.615677
4696.679398
3987.5323
3023.963192
1912.592842
844.9028014
-107.3383872
-942.3930707
-1682.647977
-2328.389189
-2854.783066
-3249.503614
-3516.960272
-3655.04222
-3655.558181
-3522.668126
-3275.065559
-2934.732557
-2520.421985
-2050.896319
-1549.973279
-1045.033796
-556.68299
-100.2775647
301.9874133
633.1998923
889.8916908
1062.489546
1145.739417
1141.721122
1053.071145
890.3864732
666.3611616
396.5616178
99.59291947
-205.2843628
-499.4388654
-765.4002379
-989.8151122
-1155.368306
-1227.791528
534821.9374
4431813.435
10714920.78
22770639.61
43961089.53
58347563.81
48010020.2
23463191.28
7606758.226
1407225.801
188959.4128
32973.24185
11071.26122
9121.573637
10149.73883
9641.386821
9873.516058
9284.273696
8346.098638
7545.213206
6597.317127
5372.525269
4064.781684
2868.430125
1781.783859
754.6884712
-208.1049098
-1072.085398
-1818.282081
-2442.029584
-2933.912048
-3288.082908
-3501.915287
-3572.141809
-3501.978156
-3307.169899
-3008.935354
-2627.600049
-2182.978127
-1698.486866
-1201.696611
-716.1802886
-258.8301608
149.5533627
489.2891763
754.5769074
936.9417514
1029.95541
1035.370167
955.5481866
800.6041218
583.0510142
318.4250362
25.35261938
-276.8713802
-569.825609
-835.2918936
-1058.280534
-1223.682207
-1295.562182
453444.4753
10867044.27
22057531.96
49261057.04
68300739.36
66306421.76
41940131.29
18448256.82
6152229.155
1534807.469
245654.8014
35930.029
22004.88575
18279.85153
14473.03206
11537.47873
10243.37373
9814.248968
9240.381589
8351.493302
7234.475269
6056.517233
4897.022035
3735.090933
2544.983606
1367.690312
281.7356603
-662.4077739
-1466.920499
-2151.406172
-2708.737054
-3123.137585
-3388.682264
-3505.427718
-3478.14364
-3320.822037
-3054.248616
-2699.069434
-2275.70565
-1807.365858
-1321.601966
-842.9057451
-389.7141579
18.00492346
359.9417356
628.2751898
814.8199902
913.3616024
924.9710639
852.0612775
704.4967498
494.2047852
237.0545477
-48.93762788
-344.8341929
-631.7846069
-891.3144026
-1110.20245
-1271.839756
-1341.28908
8691915.817
22157742.02
48738168.48
73698172.52
70916420.25
51519036.25
27257252.16
11288915.36
3862104.513
980135.6225
176957.8975
22794.61873
15814.98818
15582.58014
14523.62121
13066.42442
11863.75021
10781.93733
9643.70375
8591.012712
7572.630856
6507.024669
5331.730422
4067.205289
2787.937975
1575.848277
481.093412
-482.1537667
-1319.404736
-2039.00653
-2625.077344
-3058.438048
-3340.596679
-3474.440572
-3465.061113
-3325.801689
-3075.945528
-2735.821873
-2326.436231
-1871.429238
-1397.558553
-928.7774411
-484.0865482
-83.39978912
253.9465481
519.0990951
704.1842644
803.1895766
817.1272226
748.7220465
607.3563082
405.0522211
156.862062
-119.2794733
-405.0868715
-682.1609424
-932.0884478
-1143.706684
-1297.794715
-1362.767333
51652485.64
148224035.3
94206292.99
72579043.8
53839572.7
31923113.1
15305457.66
6369397.745
2308179.432
694337.432
109310.107
-28704.28194
-1447.983291
14040.05126
14541.87583
12715.26283
11313.14947
10336.8584
9451.865706
8575.505181
7587.633542
6429.153669
5153.160179
3841.533119
2581.883651
1403.171985
314.667854
-619.1065531
-1443.378515
-2137.888136
-2698.087864
-3104.82649
-3363.50833
-3481.41101
-3461.194435
-3316.073975
-3065.102863
-2727.85367
-2325.032912
-1880.493276
-1419.498385
-964.1695942
-533.3621019
-146.6045918
178.7196308
433.4819491
610.4112163
704.3039958
716.1881879
649.2812987
512.6935573
318.3185543
80.7980308
-182.6510712
-454.7833692
-718.1811875
-954.9385272
-1153.624934
-1298.950404
-1356.519009
74125278.12
80238076.52
63466847.55
48744561.71
32666811.66
18478721.75
9105734.098
3914916.955
1424658.979
357973.3553
-47249.03023
-156144.7703
-100034.8894
-16334.42201
7942.725829
10546.84932
10380.36171
9793.029279
8972.965812
7986.48514
6853.786974
5620.281031
4291.707778
3032.65487
1872.974633
802.4803082
-166.7269577
-1048.924032
-1803.695601
-2430.909817
-2921.898396
-3269.843656
-3478.674777
-3549.960773
-3490.584813
-3316.332249
-3045.33269
-2696.22531
-2289.77627
-1849.149022
-1397.293894
-954.3601941
-538.7230879
-169.1309345
139.769468
379.6546485
543.1295243
626.7775823
631.7712913
562.0695316
426.986553
237.7103748
8.88145811
-243.0610483
-501.8323587
-750.9505235
-973.793396
-1159.31459
-1292.304042
-1343.552943
52573390.5
49453824.91
41170759.05
30896662.83
20307262.46
11690228.09
5945626.131
2636252.644
932821.2123
143462.9374
-168544.9751
-253671.8014
-224715.7649
-114239.5627
-18758.39149
5928.234901
8863.800281
8545.830142
7604.555323
6503.603934
5350.159497
4183.677587
3018.040691
1886.023715
887.833428
-67.99742455
-923.5755359
-1677.929023
-2315.474398
-2829.578519
-3216.712899
-3472.633095
-3595.731992
-3591.873573
-3474.036759
-3257.375339
-2957.939628
-2593.120206
-2183.079162
-1749.244273
-1311.699443
-888.2811481
-496.5244448
-152.8877156
130.731171
347.2018997
489.9526618
557.3100848
550.8439858
475.2918926
340.1622591
156.218049
-62.37176155
-300.6285451
-543.0448508
-774.3346843
-979.7563434
-1149.313448
-1268.669253
-1311.562885
36839466.84
33504915.36
27704113.33
20652961.69
13775911.14
8255286.566
4440443.171
2092809.402
776325.4857
104099.2194
-193387.7444
-284552.1164
-274811.5937
-211412.5402
-101408.846
-16448.6299
3776.158218
5891.375794
5374.912111
4446.739565
3469.312183
2488.242794
1534.266576
571.4585199
-267.1189682
-1079.98327
-1779.448399
-2380.117483
-2872.532322
-3242.800023
-3498.540134
-3634.92398
-3653.685364
-3565.404942
-3383.081126
-3119.756072
-2790.048798
-2411.23912
-2001.852114
-1580.267885
-1163.537247
-767.8347733
-408.9049552
-99.77078414
151.0595575
336.2803897
451.8533402
497.5113487
475.2389891
391.2281544
254.3204944
75.22438934
-132.6195078
-355.8693454
-580.0286507
-791.4670524
-977.3136344
-1128.968921
-1232.973223
-1266.677908
28041130.55
24581156.76
20062560.53
15099799.61
10463095.66
6628777.543
3836260.855
1982784.273
846532.2144
204284.7909
-120614.5964
-251706.3368
-271178.7993
-235209.7572
-171495.8578
-80456.27381
-13393.219
1256.968004
2671.805479
2226.402924
1488.640372
713.7789707
-45.12441788
-807.5708777
-1492.053619
-2092.501235
-2594.852168
-3021.015745
-3344.073579
-3557.957633
-3670.647165
-3679.913311
-3594.671132
-3425.713398
-3182.836205
-2878.887633
-2527.654862
-2144.547759
-1745.870972