/*--------------------------------*- C++ -*----------------------------------*\
  =========                 |
  \\      /  F ield         | OpenFOAM: The Open Source CFD Toolbox
   \\    /   O peration     | Website:  https://openfoam.org
    \\  /    A nd           | Version:  10
     \\/     M anipulation  |
\*---------------------------------------------------------------------------*/
FoamFile
{
    format      ascii;
    class       volScalarField;
    location    "0.02498436188";
    object      ddt0(epsilon);
}
// * * * * * * * * * * * * * * * * * * * * * * * * * * * * * * * * * * * * * //

dimensions      [0 2 -4 0 0 0 0];

internalField   nonuniform List<scalar> 
5170
(
11994.54932
1068.294045
1445.888358
11311.06967
-71769.46508
-5770.719984
-1135.931646
891.7075862
-1204.831871
-77271.16931
-16417.10067
-22172.26613
-11854.6592
-3958.405348
146059.6504
30588.72934
21675.209
8463.696593
-2101.567122
101851.6982
9978.889332
55558.44376
33012.88171
1648.318542
225453.3613
-63263.05552
-125196.0194
-98275.60244
-146.9785969
1039548.879
5408.146075
-1445.110873
-56813.01791
-25973.08218
1047209.77
38435.49235
48415.63463
78781.31816
115376.2626
1185665.322
14810.49771
30328.20327
-13854.55381
-120517.5264
1384178.26
-15641.36004
13491.10949
58974.16057
-505936.2037
1547717.911
-19133.51091
-11511.21652
18806.3345
333375.3354
1551011.891
-2713.062958
-19229.9684
-29623.5153
615840.0948
1571876.351
8112.816505
-9065.863287
-39061.9144
296155.4199
1642554.431
9121.934109
4650.080053
-13207.3381
-153452.5517
1751054.898
1855.491396
10571.96864
6346.650228
-274891.5789
1773535.802
-5370.027923
4032.330605
25944.66968
-163841.6673
1831186.229
-922.4049609
-3112.44983
9772.795894
113179.5647
1881875.815
4578.398538
2600.150962
-32434.48699
279933.0288
1869039.684
1843.830833
5062.705089
-4080.534698
164201.6685
1778877.739
766.16985
7971.510671
29153.85164
-77754.13625
1141948.467
-54284.79095
-268.1144138
0.7493661166
829.5480425
-51399.29639
-52765.67562
81.89705753
-15.26637782
75.52313651
-47828.08567
-29887.2019
68.42257054
66.21262477
153.2864597
-22590.40996
-21750.91177
168.7856926
48.70569924
142.256551
-16593.08278
-22358.0076
12.33405754
-49.87320824
125.0349604
-20798.68799
-24020.68353
-0.1248102751
-5.501445703
115.999294
-28406.28817
-25595.91936
36.39282736
-38.62304819
783.0876334
-41270.19361
-24874.862
-93.85181075
-99.30497928
-26.23444258
-52849.2092
-34270.06168
57.71789069
377.0150274
636.2935904
-57190.62761
-46812.71733
491.9387552
295.7079703
3277.559163
-62159.31338
-41172.60918
-26.1552369
-346.2830938
-3080.385248
-56418.91915
-37517.39245
57.72151657
203.690274
-7498.23422
-73621.93772
-45211.4973
1344.383899
3230.910546
28820.83264
-80970.56925
-77407.39951
191.2367642
120.9534531
13251.42839
-72797.32416
-74649.78865
279.0333149
4433.127191
-74790.43188
-141275.4735
-72848.1747
-841.7142696
-9163.423331
-7659.494224
-121201.2721
-76419.29087
2061.689692
15720.93757
55229.53992
-121464.5924
-99376.6412
1671.791917
11272.81511
44537.72111
-159252.743
-96033.80595
-2511.721062
-3820.580518
-12719.68053
-153876.1626
-281351.3605
-19449.63911
-27840.04644
-33830.66353
-326769.1845
-3832.514187
9540.957632
40512.7051
56218.66531
517887.6349
4899.362605
-10997.34443
3906.911053
210888.8756
-313934.2603
4727.022393
-22733.73948
-186412.2912
-426729.7157
-121446.7749
-8511.516963
14068.79107
173125.4209
455754.0483
1348519.492
-18297.28019
43862.34213
575357.1519
687790.7212
1615467.021
-13381.60769
-16498.14591
-118257.282
274879.1474
1500701.971
-4666.835605
-39951.86173
-356538.6676
94366.51698
475465.9571
7910.50027
8112.603624
-27769.07717
-56393.4629
-289563.7188
28624.04031
69237.99464
372121.0067
335010.2179
183791.6613
25377.41996
92784.7289
400296.2284
246853.4415
138403.7925
-200.450094
155949.1467
-13625.50969
-136728.7887
-83194.84648
65076.90293
-489639.3543
-470087.8983
-367253.4892
-477787.9283
-466993.1698
-475693.6746
-605008.5347
-681094.3478
-976102.9454
-319499.7522
-448472.9439
-484985.8536
-495243.7165
-240885.3046
-50724.99559
40061.85221
280440.9187
268719.359
355662.7316
693457.8474
619201.3345
381204.3951
290790.8471
347907.8159
-190645.6421
-158531.8716
-151108.5003
-189785.5605
-137223.0153
-110235.164
40197.32563
225706.2704
174414.6608
-270260.7457
723658.2316
570145.2045
-123162.1363
-1115374.976
-2213547.267
-662731.0796
-1133339.058
-2263414.005
-4083803.517
-6415812.724
-5540827.31
-6591962.63
-9729851.649
-14668277.76
-22202024.61
-22285600.94
-23009361.11
-23764537.48
-23837867.93
-21168916.95
-14953349.15
-14153350.47
-12412523.46
-9488164.817
-6893493.538
-2596769.763
-2243245.121
-1557126.213
-975619.8753
1191758.949
2263210.197
3246538.056
5729769.252
9164358.207
11916592.99
12289346.11
12170656.32
11579695.97
10971240.71
10825422.51
7937659.154
7911244.174
7813732.644
7679696.584
7551156.719
4964827.254
4929323.265
4892331.159
4813025.557
4695486.634
2945856.986
2926438.083
2900871.815
2848574.068
2772403.998
1697234.669
1692622.595
1673633.527
1643078.543
1605788.059
981844.183
976471.7609
967849.9212
950665.942
931320.4953
580943.3764
578813.8387
572817.273
565208.2425
551006.4285
354765.4148
352232.2116
349489.8068
345757.6543
338179.5183
218186.8668
217118.9943
216186.9074
213795.0664
209404.5069
132553.5833
132171.9469
131433.8729
130241.1781
128769.6636
78002.76888
77637.42647
77164.66201
76995.81607
75644.81104
43849.56101
43903.89788
43654.28337
43459.71647
43021.38273
23780.06404
23923.64872
23768.66508
23797.33601
23353.06305
12969.08506
12614.36419
12665.7675
12752.18949
12756.93343
6639.091345
6812.918925
6846.492023
6689.214585
6864.309109
3678.040239
3742.785027
3721.761502
3709.800046
3728.35441
2190.86665
2155.595037
2144.196519
2196.325158
2097.642156
1287.781464
1385.153201
1361.764524
1372.55532
1275.397381
910.688666
933.5155572
932.0430385
951.7685214
853.3675777
656.1335643
705.7714001
699.7575856
691.1518903
677.5703591
531.272277
535.5021111
539.9328337
544.2291844
569.2280219
415.3399893
436.8607238
437.2182255
437.6741218
438.4911522
340.1922706
355.5717728
359.2431344
355.955138
338.661605
279.601841
295.6360657
293.9910103
297.4141783
263.2319323
240.7518203
246.489188
248.7786233
243.8039023
239.9114264
212.9000198
206.4967637
210.5840128
210.8020177
214.9171726
186.6817417
182.015318
179.2339992
183.1123828
206.2067449
144.5477711
161.680477
165.0613059
152.5595816
172.0655748
141.459601
136.1933326
137.5737533
139.681072
123.9237532
109.3218841
125.3582085
115.7184111
121.7436041
118.6292073
96.12770365
106.3141121
104.0275426
102.6578827
103.0723345
94.2013809
89.89540489
91.04376612
87.8198259
107.1967845
82.80203793
80.19615868
80.59764182
78.58521128
94.23974667
73.75891717
72.35774521
71.78214441
71.30290322
83.5498045
64.37827783
65.11394891
64.73027966
63.27906421
72.94225065
58.27860974
58.31248096
58.14470225
56.75758457
63.4360031
53.3196846
52.31815079
51.15916282
50.92820237
56.77400416
47.25604717
46.72413137
45.85561168
45.60891968
54.99404554
40.56701001
41.61012271
41.57868627
39.79930311
47.49071823
37.06156159
35.49983573
36.96797132
35.77080974
37.43358709
30.96805965
32.00118408
31.65270112
31.42154871
32.42567827
29.06283304
29.02700374
28.83176826
29.09503081
29.7964612
24.40094493
25.00072404
24.62167391
24.74338361
24.52583862
26.69233676
26.77989442
26.39895822
26.70296802
26.14016868
18.21783868
18.509476
18.43592534
18.43593358
18.01856096
-2384412.158
-75662.68303
1457061.19
1814443.842
2300061.761
1830373.915
340622.5117
-539951.234
43100.65853
109999.9187
-15926.84452
-581186.6164
-798236.7319
-442073.0866
324115.8824
-1183456.647
642143.05
-4290.274947
-2443348.372
-8441496.559
-25547955.22
-18950722.59
-5657604.229
4560462.927
12001416.31
10721557.92
7362724.192
4623768.718
2739225.603
1563937.251
906608.993
552538.2868
338535.9732
212526.6068
127452.6347
76572.12024
43205.42147
24338.80718
12000.4143
6535.669203
3781.143957
2426.31912
1728.962955
1268.023844
792.7128569
452.1741677
429.8412124
420.6757213
405.8442952
283.2202899
189.9790338
94.23343379
120.180174
190.6917551
117.5179991
106.4180385
32.22159551
30.80567795
31.17811105
35.38910198
39.67071588
35.77604325
15.54744894
19.85744077
32.83850091
29.10841005
25.42357833
25.06873064
26.85418075
19.38414996
102730.8124
-626919.5567
31709.67381
-31693.11531
-12069.12658
-2282235.085
-2487366.673
51063.95283
-22113.62995
370.6859415
-639056.8003
1844910.55
1649237.088
341244.9986
128513.8997
863959.844
1384384.788
542330.8969
-221510.2268
-80127.63924
1908833.226
1665982.52
253797.7267
615438.4936
-222854.085
1837697.334
913051.9414
385360.7902
910849.294
231101.3313
113380.9
747171.3268
382803.2842
929288.6858
297185.5486
-527248.4489
-336207.7827
-419895.2482
-194697.9132
270105.3547
4974.264425
28435.06572
-56778.14108
-1905526.52
-30792.94548
592.0165374
-417321.3014
-145077.3705
-1817236.097
373014.1665
-42991.17777
-401528.7043
-493925.8838
-664229.1863
-291516.3167
-474685.7942
-570797.0863
-366001.2234
-437328.4536
-565530.0804
-694770.0661
-667639.1455
-902945.2073
-116538.1853
831584.787
-75783.83092
79234.52533
-58336.85747
-653816.8769
-767068.1082
703166.0214
932161.1169
494150.2185
-412466.1161
-2081583.11
-512576.8865
-1402368.17
-1326931.264
-1886837.545
-1377776.673
445980.6634
442844.543
-557006.6129
-2475785.1
-3216728.957
-1346467.123
-2515214.526
-3482031.889
-3733838.915
-5359034.1
-3150359.761
-5883976.823
-9876501.796
-16077922.83
-23474723.61
-11211979.06
-20642011.96
-31707839.98
-35708473.22
-24493886.85
-28952024.1
-26982743.33
-16694284.2
-5303501.956
3314365.738
-15389219.63
-8786599.169
-1734556.279
6937950.487
15411704.27
-4537628.597
2117485.049
10606492.37
15273000.31
13980427.32
9003199.386
13750955.7
15200649.95
14413736.21
11862741.61
12919853.77
13694458.71
13298455.5
11748765.16
9477267.076
10755731.46
10455126.78
9634761.819
8344138.063
6791956.664
7324419.182
6949159.198
6323290.191
5487970.537
4549053.425
4534246.095
4278523.471
3888645.979
3404329.321
2871421.25
2673366.466
2522529.289
2303006.425
2035203.117
1744615.392
1546389.22
1462121.804
1342976.467
1199895.026
1044219.148
899357.9693
854278.7763
791529.7207
716223.4872
633639.8349
536565.2328
513944.4564
481140.0554
441325.6581
397407.551
330889.4165
319002.1248
301805.9913
280494.9678
256749.3185
206173.4262
200482.179
191164.7424
179861.6332
166591.2566
126952.8857
123900.5757
119213.892
112986.4859
105748.9685
75259.0483
74053.17952
71598.81201
68407.25433
64472.04044
42944.55463
42410.68591
41323.06105
39627.73092
37677.18009
23555.19471
23459.78412
22948.44704
22184.45982
21192.29311
12757.87711
12700.05552
12455.16493
12143.48666
11667.07809
6861.380679
6847.75129
6767.723428
6628.198815
6431.015039
3778.872665
3787.485119
3782.848362
3702.497185
3637.427542
2183.754882
2222.747885
2217.608582
2188.267995
2166.873739
1363.169673
1403.440846
1398.224129
1399.042658
1379.096834
926.4088997
963.30787
961.7131005
960.1350614
959.5646652
701.5903988
709.6385568
712.6372216
712.7391164
709.7336217
557.8297784
556.0069084
551.3036994
558.4599717
552.5699558
442.059651
446.9106129
440.9413726
449.0246705
443.7226797
353.5495099
362.7652113
360.6106269
365.9010837
361.6529024
286.4587034
298.99449
299.0651591
300.3398353
300.3208649
245.6113434
249.2062422
252.9892985
250.3904749
253.3251232
212.2996049
213.3280276
213.5240346
215.0855768
215.1569041
191.0182301
184.9873363
185.6680015
186.9888942
186.8786855
163.517206
161.1655128
161.2501779
163.8217758
162.6248618
134.051837
139.6197924
140.5854727
140.9960863
141.9789194
120.1514244
121.0859708
121.6187007
122.9037584
122.9135429
103.7236076
105.2741325
105.6913905
106.9953567
107.2010974
96.30732315
91.68832273
93.24776944
93.82204269
94.47550177
85.30694281
81.54929819
82.84220132
83.33921639
84.09562637
76.38620634
73.40182724
74.33995392
75.10448112
75.49637827
67.51949178
65.91546836
66.46824718
67.0612526
67.71430423
60.19685515
58.94895241
59.67615754
60.16476315
60.75210083
53.92369092
52.46599324
53.68712123
53.6920289
54.48772185
49.57832452
47.26049834
47.77944051
48.38002163
48.75116629
43.48421005
41.99755612
42.49936505
42.95599473
43.3195381
36.93551082
37.01615495
37.46673116
37.85266153
38.19117788
32.16588264
32.27012551
32.61448292
32.89058793
33.21309229
29.43618471
29.41425248
29.56908992
29.83337774
30.00581104
24.52912839
24.73899845
24.66711038
24.76719242
24.69259739
26.26317685
26.24398579
26.08185652
25.94922578
25.66637305
17.98550234
17.44883633
16.45461012
15.15462379
13.69203518
-292.7527319
-0.232694203
-0.4647285443
-0.08628085574
-0.02001637894
-0.009593329365
-0.006014726247
-0.004618246487
-0.003590005318
-0.002981075193
-0.002595514905
-0.002528440723
-0.002990634826
-0.004901126379
-0.005504605511
-0.00535187712
-0.005078124107
-0.004769964498
-0.004414442232
-0.00396202704
-0.003386271378
-0.002782509051
-0.002224048478
-0.001595630928
-0.001109086595
-0.0006434979636
-0.0001986122445
0.0002316994375
0.00064326589
0.0009993733899
0.00127128586
0.001343728055
0.001414342543
0.001421109306
0.001369877315
0.001363068841
0.001366774955
0.001270096288
0.001160413347
0.001062611621
0.0009722765941
0.0008663668422
0.0007946020502
0.0007107085392
0.0006031263527
0.0005011618973
0.0004211823841
0.0003473808609
0.0002780657517
0.0002110266897
0.0001454142387
7.583603633e-05
2.598277566e-05
4.076065942e-05
0.0001003492401
0.0001083079519
0.0001801546803
0.0003264515936
0.000288622922
-0.08852074863
-173.9939817
-5.734629752
-1.103921591
-0.2992122459
-0.08640609327
-0.04167218185
-0.02799908015
-0.02037697168
-0.0144494265
-0.01069894106
-0.008443786515
-0.007089338268
-0.005528156298
-0.001953592603
0.0004571476728
0.001662017458
0.002479015866
0.003106353179
0.003666561596
0.004162105315
0.004526073571
0.004773886167
0.004882917886
0.004795463867
0.005013392862
0.005027902371
0.004982396974
0.004889843713
0.004741823861
0.004571583786
0.004380805743
0.004162736298
0.003916553756
0.003664384858
0.003372098556
0.003172269303
0.002923199753
0.002663411866
0.002401708657
0.002161186555
0.001919828418
0.001723245685
0.001526199588
0.00134205517
0.001162069657
0.0009941959066
0.0008375875295
0.0007050369574
0.0005848928213
0.00049747614
0.0004128748103
0.0003641022134
0.0003096805713
0.0002367301686
0.0001278469987
0.0001228730646
0.0003063857461
0.0007041187483
0.0004630879764
-0.08489322544
-480.4657616
-62.82011534
-4.11264727
-0.7644131986
-0.2890952339
-0.1513800692
-0.1004830755
-0.07361838
-0.05065411272
-0.03457115053
-0.02328744607
-0.01502452937
-0.009068129794
-0.005800559387
-0.003526170434
-0.001958510053
-0.0009497866141
0.000117682665
0.001037638329
0.001686964114
0.001711252839
0.00156313089
0.001415879567
0.00138460632
0.001150682905
0.001058204387
0.0009685908232
0.0008875775798
0.0008128710905
0.0007474347885
0.0006946286759
0.0006491319277
0.0006072508584
0.000573967332
0.0005562383908
0.0005326283546
0.0004810043227
0.0004213653183
0.00036436014
0.0003133322787
0.0002679493442
0.0002263918013
0.0001883647365
0.0001764581606
0.0001625987466
0.0001396352
0.0001183785641
0.0001018319243
9.030559839e-05
7.568887472e-05
6.236622921e-05
5.046863974e-05
3.540243811e-05
2.25327964e-05
3.057654451e-05
0.0001063441603
0.0002597128557
0.0003927360399
-0.001082768144
-0.08080794551
-25818.98967
-1127.798921
-44.04664402
-4.19342838
-1.027883774
-0.4316817255
-0.283926683
-0.1936970194
-0.1348583844
-0.0943785209
-0.06696002444
-0.04706868281
-0.03325242214
-0.02483592834
-0.01958923422
-0.0162577102
-0.01345008225
-0.01112704654
-0.009305297099
-0.008010330849
-0.006835111258
-0.005841832624
-0.005013253218
-0.004300445663
-0.003669903899
-0.003065007445
-0.00256738556
-0.002162751325
-0.001813660685
-0.00150247447
-0.001213822175
-0.0009641561134
-0.0007753435728
-0.0006147233024
-0.0004881157119
-0.0003949411162
-0.000318668955
-0.0002630007396
-0.0002410319876
-0.0002890233288
-0.0002552523164
-0.000210206346
-0.0001698677312
-0.0001671921438
-0.0001595825034
-0.0001271638501
-9.027467168e-05
-5.711988001e-05
-2.982930496e-05
-1.214964562e-05
1.978124119e-06
1.059311515e-05
1.785182979e-05
2.04799844e-05
4.339474659e-05
7.816903426e-05
0.000160950509
-0.0002098698546
-0.005350587472
-0.07745930858
-20310.64757
-2698.901798
-432.9356527
-53.77502647
-6.54861556
-1.413895694
-0.7703596489
-0.4893585553
-0.3299143317
-0.2259311812
-0.1534239925
-0.1046391212
-0.07289883828
-0.05284364148
-0.03956662806
-0.03010573468
-0.02374318948
-0.0196176866
-0.01683687541
-0.01471572815
-0.01276643248
-0.0110855779
-0.009637214935
-0.008388700279
-0.007382520304
-0.00656405168
-0.005832186207
-0.005171415529
-0.004568886243
-0.004026337866
-0.003540838763
-0.003099696507
-0.002709403628
-0.002352549632
-0.00201941399
-0.001714922833
-0.001437395352
-0.001176441568
-0.0009324356564
-0.0006704296347
-0.0005231034989
-0.0003982759596
-0.0003029767976
-0.0001942114621
-0.0001231057644
-4.162799125e-05
-7.866611466e-06
1.465255366e-05
3.061856576e-05
4.115774938e-05
4.761135692e-05
4.696079349e-05
4.430600258e-05
3.661499321e-05
2.157451521e-05
2.426550437e-05
-5.878126211e-05
-0.001113405734
-0.01024622515
-0.0733426731
49627.02757
8090.960081
-637.0044605
-368.2522345
-35.85834596
-4.619021833
-1.407169165
-1.076861195
-0.7714509192
-0.5359344017
-0.3561101464
-0.2332261997
-0.1515860768
-0.09802951563
-0.06397532055
-0.043737976
-0.03157991697
-0.02391649426
-0.01889062218
-0.01530832492
-0.0126648273
-0.01058979552
-0.008894138485
-0.007522193528
-0.00641952795
-0.005465047471
-0.004663226843
-0.004005684481
-0.003419949686
-0.002909451628
-0.002488227544
-0.002119828985
-0.001798281724
-0.001520030394
-0.001276804687
-0.001061280667
-0.0008754673549
-0.0007179619986
-0.0005812345181
-0.0004570142799
-0.0003458673544
-0.0002564826369
-0.000200452563
-0.0001565187727
-8.565721551e-05
-6.131598422e-05
-2.406915809e-05
-6.993962909e-06
1.822004908e-06
1.469638993e-05
1.675729791e-05
1.64258166e-05
1.225033513e-05
6.434089584e-06
-1.529529692e-05
-9.01569554e-05
-0.0004447102433
-0.002109164441
-0.01269601052
-0.07024425592
156828.3307
19546.19244
395.7414479
-3098.296772
-357.6864402
-13.03251201
-1.901088345
-1.59619107
-1.20074499
-0.8087662363
-0.5387536938
-0.3518166448
-0.2264484375
-0.145576391
-0.09520838204
-0.06482454542
-0.04602139227
-0.03389653621
-0.02624509354
-0.02105900889
-0.01718990612
-0.01420573928
-0.01182491577
-0.009915754756
-0.008358302014
-0.007076249373
-0.006012441454
-0.005120830014
-0.004358230549
-0.003723824085
-0.003177332761
-0.002704811195
-0.002310578538
-0.001962958036
-0.00166435576
-0.001410830786
-0.001190842248
-0.00100290376
-0.0008387313809
-0.0006954395878
-0.0005665128844
-0.0004411194395
-0.0003251481045
-0.0002391658682
-0.000224227503
-0.0002070726456
-0.0001683255136
-0.0001244779949
-9.26128273e-05
-6.810711081e-05
-5.969424799e-05
-5.075286925e-05
-5.232914213e-05
-8.225040361e-05
-0.0001012951189
-0.0002868988262
-0.001067408126
-0.002954777391
-0.01266171513
-0.07879402824
-9627.158933
5573.310048
-30561.70575
-22637.93426
-3617.427053
-64.80372467
10.13233603
1.51290644
-0.7292146931
-0.7845667646
-0.5916076984
-0.4039164126
-0.2641815584
-0.1706607651
-0.1113488885
-0.07585102928
-0.05438663416
-0.04116982854
-0.03249827206
-0.0261407584
-0.02160671526
-0.01810955188
-0.01524027333
-0.0128500664
-0.01084251783
-0.009204419488
-0.007840101037
-0.006683457875
-0.005708988231
-0.004890751492
-0.004186428132
-0.003587766351
-0.003078501011
-0.002634665286
-0.002259540437
-0.001931058657
-0.001652138105
-0.001407758899
-0.001193833365
-0.001009892961
-0.0008485183736
-0.0007188272166
-0.000595460855
-0.0004508589039
-0.0003486494438
-0.000290024998
-0.0002744478236
-0.0002525581573
-0.000210422233
-0.0001684861233
-0.0001446544427
-0.0001310926031
-0.0001386891024
-0.0001375494376
-0.0002110955765
-0.0005226485725
-0.001247344728
-0.003480279116
-0.01125663354
-0.04984056466
-225384.4842
-58996.5092
-53599.07221
-46970.44019
-17021.93146
-326.4565028
155.15543
20.67390149
3.561089748
0.09601532919
-0.345648128
-0.3223136209
-0.2300729177
-0.1528561064
-0.1013518867
-0.07023208202
-0.05230075842
-0.0421282038
-0.03499077525
-0.0295624565
-0.02519003741
-0.0214344514
-0.01829170215
-0.01556421003
-0.01325501967
-0.01128366015
-0.009632675146
-0.008232300475
-0.007039036877
-0.006034556161
-0.005181864787
-0.004454174173
-0.003834152615
-0.003301995228
-0.002845650444
-0.002447672004
-0.002104842236
-0.001806925429
-0.001543179655
-0.001318179364
-0.001122520719
-0.0009574423673
-0.0008240584007
-0.0007294408775
-0.0005935494693
-0.0004554917507
-0.0003685178149
-0.0003154409375
-0.0002983155416
-0.0002798523644
-0.0002545177256
-0.0002339065183
-0.0002220394272
-0.0002151130672
-0.0003280072475
-0.0005683622822
-0.001083334178
-0.002488344696
-0.00791706162
-0.0503276815
-68436.20301
-95295.36648
-137255.3228
-108275.4896
-36902.02959
4323.636595
1631.058391
118.19217
16.96288662
2.885820619
0.5376927365
0.02547520004
-0.06883651796
-0.06617324535
-0.04861773156
-0.03920401075
-0.03492817067
-0.03364919446
-0.03135559413
-0.02944959736
-0.0267742602
-0.02391265961
-0.02090145865
-0.01808817419
-0.01556900684
-0.0133103263
-0.0113662028
-0.009728623649
-0.008328198129
-0.007141608247
-0.006138662946
-0.005282637108
-0.004556150846
-0.003932955589
-0.003396180213
-0.002929877913
-0.002524316192
-0.002175028151
-0.00187162328
-0.001609507639
-0.001384401115
-0.001187759634
-0.001019727118
-0.0008789470531
-0.0007693868419
-0.0006708995554
-0.0005493955155
-0.0004367458596
-0.0003718852745
-0.0003313402292
-0.0003081037858
-0.0002811169289
-0.0002787753173
-0.0002943325174
-0.0004082189833
-0.0005903685857
-0.0009598576905
-0.00178874259
-0.005676095292
-0.07326267899
-120423.4015
-208741.7377
-314775.6171
-194610.507
-72732.62283
15995.74229
8789.707041
525.6761643
49.88810809
10.44197684
2.730326717
0.8463682246
0.2991769797
0.13160694
0.06729589203
0.03183571989
0.006496286377
-0.009585939185
-0.01879281154
-0.02410142198
-0.02562421514
-0.02492427218
-0.02289993669
-0.02042560209
-0.01783475252
-0.01537114736
-0.01314923365
-0.01126566291
-0.009651104812
-0.008272449932
-0.007101299031
-0.006100847596
-0.005249399737
-0.004521329149
-0.003900803061
-0.003368571478
-0.002914940784
-0.002518766828
-0.002178774941
-0.001880119546
-0.001627293804
-0.001403444341
-0.001213863432
-0.001043330361
-0.0009026766557
-0.0007849628513
-0.0006953091957
-0.0006102278154
-0.0005170548358
-0.0004275700375
-0.0003795472391
-0.0003362198286
-0.0003507086859
-0.000376146272
-0.0004874294812
-0.0006393530281
-0.000938061509
-0.001425885952
-0.003557180808
-0.06720212519
-121222.4424
-506407.9812
-460078.2646
-265211.6396
-81475.87852
65315.0606
32052.42148
3154.186745
214.7157965
32.20293453
7.411519573
2.376956842
0.9664776022
0.4785286783
0.2643945169
0.1545574265
0.0842941224
0.03747767874
0.009695090473
-0.00802252414
-0.01878591536
-0.022927864
-0.02327689493
-0.02196038127
-0.0198110663
-0.01733344242
-0.01496688269
-0.01285658228
-0.01100183162
-0.009418645703
-0.0080695437
-0.006922596046
-0.00594691582
-0.00511246971
-0.004403387147
-0.003799076226
-0.003285844142
-0.002846307802
-0.002466926806
-0.00213691277
-0.001852676606
-0.001601500112
-0.00138867683
-0.001198828376
-0.00104383017
-0.0009073272985
-0.0008001935254
-0.0007023353432
-0.000629837657
-0.0005566685049
-0.0005042691273
-0.000465750275
-0.0004461345388
-0.0004742065486
-0.0005630910963
-0.000699446205
-0.0009934671471
-0.001306271073
-0.002320414417
-0.05993135247
-1167397.228
-713925.1765
-633465.0199
-380846.6262
-77391.29248
139989.6663
80527.18105
10919.72855
782.9659816
82.61135594
15.95560534
4.921655843
2.046663992
1.032546959
0.581610751
0.3480529676
0.2064910639
0.1116134292
0.05556352569
0.02162016582
-0.002103296246
-0.01504075156
-0.02029483571
-0.02161804919
-0.02079295081
-0.01878253838
-0.01652384475
-0.01427743113
-0.01223883431
-0.01047153709
-0.00895402156
-0.007675042986
-0.006581711184
-0.00565687327
-0.004866566381
-0.00420181432
-0.003630239446
-0.003147952225
-0.002729370031
-0.002372035748
-0.00205750509
-0.001786484254
-0.001554341874
-0.001354853794
-0.001186296032
-0.001029921648
-0.0009036211565
-0.0007932093362
-0.0007072928406
-0.000626220938
-0.0005779471106
-0.0005302909347
-0.000521931786
-0.0005426523578
-0.0006205959144
-0.0007381511492
-0.000946300504
-0.001019784756
-0.001073178844
-0.05494281561
-662649.978
-1115543.62
-1206329.072
-623769.8861
-34220.95104
311164.9408
172889.4426
30619.76058
2695.288072
238.0345761
37.98889065
9.798022525
3.794600322
1.884437545
1.060812047
0.6323304417
0.38670865
0.2266723085
0.1256807166
0.06844058639
0.02703974282
0.000343613531
-0.01244291162
-0.01836456878
-0.0199293829
-0.01917228327
-0.0174026917
-0.01529723952
-0.01321686899
-0.01132054508
-0.009667592519
-0.0082571441
-0.007067011026
-0.006061958505
-0.005221343086
-0.004506990255
-0.00390009649
-0.003379137813
-0.002937877261
-0.002556307512
-0.002227987258
-0.001944131302
-0.001702243321
-0.001487175621
-0.001305152872
-0.001136335605
-0.00100108899
-0.0008805803704
-0.0007934414237
-0.0007009787686
-0.0006528033528
-0.0006036205108
-0.0005923711128
-0.0006079184266
-0.0006732620344
-0.0007561762291
-0.0008661026962
-0.0006012195173
0.0007462451575
-0.05129820896
-2445631.263
-2774406.606
-2138779.813
-872169.6026
446240.0554
757173.0549
316568.8697
62662.79111
7726.493225
706.2194773
84.21939622
17.92742151
6.340864449
2.998426896
1.627380222
0.9607531208
0.586519622
0.3574593114
0.2190015324
0.128729365
0.0631089306
0.02233475239
-0.0001782256155
-0.01187170213
-0.01678041472
-0.01804447941
-0.0172717888
-0.01562789256
-0.01369861932
-0.01179346249
-0.01009583465
-0.008626330922
-0.007382412714
-0.006331213126
-0.005448682304
-0.004700029807
-0.004067620814
-0.003528817296
-0.003073472262
-0.00267996702
-0.00234809199
-0.002057659858
-0.001809331702
-0.001586665164
-0.001397709453
-0.001227672695
-0.001091837244
-0.0009611283559
-0.0008645436524
-0.0007691880254
-0.0007261835192
-0.0006737625766
-0.0006703594465
-0.000668750346
-0.0007257731783
-0.0007805980304
-0.0008325569667
-0.0003320007489
0.00210821244
-0.04805826823
-2820290.781
-3368420.811
-2136914.522
447873.9283
2267681.124
1483301.343
446754.832
97898.50587
17649.89021
2031.74059
199.9246868
33.82276626
10.0223427
4.393355518
2.286192817
1.286467928
0.7692651429
0.5077725563
0.3255439637
0.1905511629
0.1019895381
0.04749064485
0.01589036709
-0.002125692198
-0.01115848381
-0.01493843244
-0.01567754386
-0.01485466814
-0.01335370228
-0.01168945765
-0.01009738834
-0.008666339958
-0.007429987838
-0.006381737889
-0.005495745062
-0.004747871197
-0.004117867992
-0.003585604519
-0.003135650794
-0.002748904586
-0.002419549917
-0.002129391059
-0.001880159867
-0.001659898442
-0.001469552914
-0.001302375462
-0.001161958587
-0.001029728187
-0.0009306078115
-0.0008314996091
-0.0007884122018
-0.0007332305796
-0.000730082997
-0.0007213995037
-0.0007624817951
-0.0007744601368
-0.0007073226569
0.0001470849148
0.003646201679
-0.04583664972
-4651894.009
-3746689.459
132967.2357
4556380.263
4290284.747
1858836.994
485711.8274
117674.9908
28756.09397
4790.907543
480.9265569
58.01641615
14.6074861
5.885006879
2.922068254
1.682753544
1.031658302
0.6419027668
0.4027700813
0.2461558026
0.1415585295
0.07542990383
0.03427768957
0.01020015547
-0.003188536702
-0.009758801794
-0.01232505959
-0.01271661878
-0.01195830686
-0.01076974936
-0.009466653618
-0.008214405831
-0.00710355745
-0.006132531387
-0.005312727517
-0.004615661681
-0.004030746749
-0.003535079269
-0.003108544845
-0.00274346659
-0.002429956042
-0.002150238078
-0.001912147677
-0.001697133563
-0.001515208374
-0.001349734354
-0.001212546983
-0.001080693877
-0.0009809174729
-0.0008860145456
-0.0008441561638
-0.0007873215904
-0.0007829687434
-0.0007692027196
-0.0007967907983
-0.0007594391549
-0.0005638115362
0.0006394709812
0.005072666072
-0.04389920128
-7138845.688
-1724323.684
6130955.461
9916736.458
6196226.038
1739296.468
386249.3028
102908.9894
38007.03165
8493.392865
897.2941386
80.99206207
14.87662204
6.812440339
3.581880552
1.987231603
1.146586169
0.7160785362
0.4551672144
0.2836867732
0.170942936
0.09728794526
0.05061796068
0.02230944682
0.005854406836
-0.003047686559
-0.007457875779
-0.009159335668
-0.009392879402
-0.008902931583
-0.008072478783
-0.007172901531
-0.006308546126
-0.005534698525
-0.004864020804
-0.004280002311
-0.003784137874
-0.003356574331
-0.002987159522
-0.002661158073
-0.002375269403
-0.002124912691
-0.00190434637
-0.001704287315
-0.001532469044
-0.00137227714
-0.001241137397
-0.001114280431
-0.001018311538
-0.0009291919925
-0.0008849025184
-0.0008259356972
-0.000821149821
-0.000803716278
-0.0008204884217
-0.0007537647348
-0.0004917119963
0.0008535185724
0.005648211532
-0.04137535524
-11147896.76
7812558.41
21332997.2
11520368.46
3219730.973
751295.7157
191490.2581
62739.20224
29477.92184
9035.158155
859.9308186
-28.4854395
-1.35155044
2.810787789
3.275932909
2.023314398
1.221273967
0.7598512749
0.4846108843
0.3065935765
0.1883265131
0.1115884106
0.06273196926
0.03286772168
0.01486853961
0.004281416188
-0.001554748628
-0.0045332092
-0.005835210208
-0.006157295503
-0.005993187209
-0.005591990182
-0.005107703208
-0.00462649056
-0.004173392702
-0.003762098752
-0.003393308896
-0.003058180291
-0.002768695463
-0.002504111089
-0.002268062459
-0.002053064069
-0.001860739761
-0.001681747359
-0.001523727982
-0.001376361969
-0.001253566533
-0.001135861645
-0.001045016333
-0.0009624822321
-0.00091697505
-0.0008588526475
-0.0008523265655
-0.0008245986654
-0.0008211853045
-0.0007098915766
-0.0003589347885
0.001145018619
0.005943863593
-0.03947640923
9153396.243
12080819.67
12191764.38
5324662.077
1423536.343
344333.5603
54214.28294
14948.04889
6698.878808
3093.61288
-17.10034099
-453.1207521
-148.7391892
-15.37446846
-1.419134144
1.357453259
1.155577286
0.7874904515
0.5040803426
0.3175555285
0.1977001361
0.1204288039
0.07137860578
0.04077975318
0.02240101758
0.01111549491
0.004328040772
0.0004485870256
-0.001727883136