/*--------------------------------*- C++ -*----------------------------------*\
  =========                 |
  \\      /  F ield         | OpenFOAM: The Open Source CFD Toolbox
   \\    /   O peration     | Website:  https://openfoam.org
    \\  /    A nd           | Version:  10
     \\/     M anipulation  |
\*---------------------------------------------------------------------------*/
FoamFile
{
    format      ascii;
    class       volScalarField;
    location    "0.02498436188";
    object      ddt0(rho,C2H3);
}
// * * * * * * * * * * * * * * * * * * * * * * * * * * * * * * * * * * * * * //

dimensions      [1 -3 -1 0 0 0 0];

internalField   nonuniform List<scalar> 
5170
(
1.16269747e-66
1.162788079e-66
1.162861674e-66
1.16309845e-66
1.163842952e-66
1.172279739e-66
1.172390158e-66
1.172548941e-66
1.172841015e-66
1.173559986e-66
1.172334082e-66
1.172462854e-66
1.172686409e-66
1.17299335e-66
1.173701023e-66
1.172314851e-66
1.172469946e-66
1.172738449e-66
1.173040734e-66
1.17375832e-66
1.172326534e-66
1.172492892e-66
1.172787279e-66
1.173093754e-66
1.180531504e-66
1.900023463e-66
1.306526866e-66
1.184415406e-66
2.391407054e-66
5.180886064e-64
2.980209421e-62
5.91831638e-63
6.2885e-64
8.68869338e-62
3.872768376e-59
1.251729476e-57
2.738418901e-58
3.637493046e-59
6.312350355e-57
2.856400248e-54
5.415794034e-53
1.331999991e-53
2.235224029e-54
4.646488851e-52
2.089394512e-49
2.420516752e-48
6.816685834e-49
1.44644735e-49
3.437049895e-47
1.523799737e-44
1.120623373e-43
3.670985602e-44
9.769044981e-45
2.52699245e-42
1.111796295e-39
5.379348389e-39
2.078052643e-39
6.876996914e-40
1.817169497e-37
8.127008557e-35
2.681466108e-34
1.235373405e-34
5.029331561e-35
1.25163286e-32
5.958908033e-30
1.387344655e-29
7.689505933e-30
3.842758561e-30
8.000678155e-28
4.386753012e-25
7.452937475e-25
5.007296364e-25
3.096860838e-25
4.448649299e-23
3.242572568e-20
4.153105941e-20
3.397172288e-20
2.651060459e-20
1.823956817e-18
2.406396402e-15
2.39878076e-15
2.399259285e-15
2.400115108e-15
2.402264773e-15
2.424941204e-15
2.421168951e-15
2.42154899e-15
2.421961807e-15
2.422667419e-15
2.425094317e-15
2.421318162e-15
2.421680606e-15
2.422078835e-15
2.424608765e-15
3.002146775e-15
2.421318275e-15
2.4217446e-15
-3.860662299e-10
-2.623020338e-10
-1.453969099e-10
-2.223733502e-19
2.490169106e-19
2.058826905e-19
2.813077414e-19
2.859673416e-19
-2.278592837e-19
2.606429532e-19
-8.579998755e-20
-7.938740555e-21
-2.135729568e-20
-1.861620423e-19
-5.673418517e-20
9.29887655e-20
9.437107878e-20
-2.333586127e-20
-3.111046775e-19
-3.405955835e-19
-8.289417996e-19
9.298059564e-20
-1.827438655e-17
-7.722964909e-17
-3.041709468e-17
2.94817058e-17
-4.154089243e-17
-4.374158254e-16
-4.16391282e-14
-8.594133604e-16
-2.773814526e-16
1.419570821e-14
-5.7032921e-15
2.162199421e-13
-4.235179082e-14
2.025949884e-13
-6.411796961e-12
-1.706458999e-12
-4.031799896e-10
8.433542747e-13
-6.356380551e-12
-1.275504402e-11
-7.601352581e-10
-7.940601709e-10
-7.135808027e-10
-2.020516277e-11
-8.166636642e-10
1.316709605e-09
8.632451729e-10
-1.411323463e-09
1.318980991e-09
-7.569881917e-11
1.054044117e-10
-4.903570943e-11
-3.12880909e-10
-1.076419058e-10
1.846216331e-10
1.774174097e-10
-1.671845958e-11
3.695244391e-10
4.693846111e-11
7.349251916e-11
1.525461763e-10
-1.708568803e-11
-3.782096969e-11
-2.356259932e-11
2.098691535e-11
6.020437398e-11
2.7682521e-10
8.286038585e-11
1.856089086e-11
1.27161432e-10
1.58711416e-11
4.421573542e-11
1.542184015e-10
1.319950847e-10
4.295190759e-11
9.85878638e-11
6.619115344e-11
3.978077918e-11
4.582718697e-11
5.427116192e-11
2.058250516e-10
1.096612763e-10
-1.623934301e-12
-3.665807707e-12
1.292563319e-10
-6.588904861e-10
2.105281876e-10
1.188036913e-10
1.190422321e-10
2.133114242e-10
-2.982189666e-09
-7.073538534e-10
1.11393568e-10
1.63480934e-10
-7.399672434e-10
-3.00162179e-09
6.384784135e-08
-7.393752234e-12
-7.525258895e-10
3.957297855e-10
-1.649497072e-11
-6.611074942e-10
-8.973491049e-11
2.254649322e-10
7.63691364e-08
-5.548910582e-09
5.138880099e-11
-1.94593852e-11
-4.442457609e-11
-8.42859462e-09
1.554349441e-08
6.110426242e-11
-3.548986799e-10
-1.33910961e-08
-2.450476785e-09
-2.004151321e-08
-1.093969467e-10
-1.417056617e-10
-2.181820284e-09
8.167078676e-09
-4.80218213e-09
2.708928613e-15
3.254761189e-11
-3.244748711e-09
3.15126137e-08
1.022580828e-06
8.336640035e-11
4.566863662e-12
-5.592313046e-09
-1.166799559e-07
-1.261618607e-06
1.244226377e-10
-9.216007631e-12
3.803966959e-10
-2.759661485e-08
-3.248421266e-07
1.186301566e-09
1.125832166e-08
8.265176184e-09
5.467455917e-08
4.823800598e-09
2.801492659e-10
-3.133903361e-09
4.755369935e-09
8.515698e-08
3.658662831e-07
4.012755313e-11
1.736075106e-09
-3.330099714e-09
1.87869906e-08
2.301327066e-07
3.510690218e-10
-1.021270713e-09
-7.31593818e-09
-3.387349117e-08
-4.236057116e-08
-8.728059016e-11
-1.333051638e-09
-8.748439532e-09
-4.803813975e-08
-1.83269998e-07
-2.339651794e-09
3.321500975e-10
-9.919239015e-10
-3.327604588e-08
-1.934087036e-07
5.454528011e-10
1.907340113e-09
1.287138591e-08
5.337549289e-08
7.843273767e-08
-3.869147045e-10
3.417386203e-09
2.107704308e-08
3.123976359e-08
-7.303255964e-07
3.816441249e-10
2.074553419e-09
2.099353408e-08
1.228688348e-07
3.918537164e-07
6.88796681e-09
-1.308339939e-08
-7.20627103e-07
3.846712229e-07
3.628538158e-06
1.186387557e-08
6.067681546e-08
-1.115423052e-07
1.212353014e-06
1.259360652e-05
5.69572819e-07
4.994054437e-08
-8.107590935e-07
-5.801963602e-06
-1.131487114e-05
4.812978307e-09
1.625886805e-08
1.93514111e-07
4.046353325e-07
2.981137688e-06
9.132417737e-09
4.288755226e-08
1.915795787e-07
6.678652554e-07
2.373612002e-06
3.653330505e-08
6.556641936e-08
1.585654527e-07
3.967387863e-07
9.937438887e-07
4.676414367e-08
6.559199368e-08
1.019603469e-07
1.820743763e-07
3.405198586e-07
1.17568246e-08
3.867474589e-08
7.397108262e-08
7.328344003e-08
1.014709915e-07
1.283322478e-08
1.289061549e-08
1.430800015e-08
2.577098102e-08
2.304951049e-08
4.176445463e-09
4.471700867e-09
4.642404705e-09
2.630686996e-09
4.449088647e-09
7.437703457e-10
7.81867861e-10
9.347600491e-10
8.515106184e-10
8.766761253e-10
1.654850138e-10
1.648891359e-10
1.650450872e-10
1.576385744e-10
1.582197628e-10
3.807073353e-11
3.672467752e-11
3.861481169e-11
2.99895805e-11
1.716919841e-11
8.983070129e-12
9.35328081e-12
9.866087524e-12
8.896901385e-12
6.81466874e-12
-2.369041525e-12
-2.2951594e-12
-3.263996201e-13
6.591785818e-12
1.593291415e-12
-4.953649558e-14
-2.410691162e-14
2.838346582e-14
3.06695849e-13
3.107178699e-13
7.711576735e-14
6.303854206e-14
-1.261804718e-14
-1.669157972e-14
7.037669129e-18
2.482777648e-14
2.442288805e-14
2.222496107e-14
2.074202877e-14
1.904802003e-14
6.203249302e-15
6.089634761e-15
9.591093333e-15
9.350215114e-15
7.935262111e-15
1.881350249e-15
1.795394726e-15
1.693942777e-15
1.627976339e-15
1.140544526e-15
3.621036521e-15
3.674457793e-15
4.088058404e-15
4.113368971e-15
4.117611517e-15
3.304764178e-15
3.326142399e-15
3.420466509e-15
3.925574676e-15
3.933437821e-15
2.003910915e-15
1.987734109e-15
2.027430066e-15
2.289985065e-15
3.09558882e-15
1.565214512e-15
2.87548911e-15
2.835822396e-15
-1.750782061e-15
-1.744811587e-15
2.18639274e-15
2.277022672e-15
2.698844044e-15
1.857307103e-15
4.346287643e-16
8.264984548e-16
6.34152463e-16
1.505757339e-15
1.954188409e-15
1.787236793e-15
1.908723872e-15
-1.166645506e-16
6.675440401e-16
8.302044724e-16
-2.288825162e-16
3.412764388e-15
3.325667002e-15
3.084303418e-15
2.68663395e-15
1.9657544e-15
4.754726018e-16
4.589789514e-17
9.307702978e-16
1.368114973e-15
-2.576756701e-15
-2.820905686e-15
-2.645099801e-15
-2.451459238e-15
-1.174300092e-15
-1.621710489e-16
-1.421705474e-16
-1.354584434e-17
-1.176798594e-16
5.851662396e-17
6.160280604e-16
1.546963395e-15
1.325286366e-15
-1.11915558e-16
-2.294394261e-16
-2.712599927e-16
-2.788090346e-18
8.588303801e-19
2.396995783e-17
1.036695031e-17
-2.504894235e-17
2.464298671e-18
6.736007913e-18
1.408700586e-17
1.356868474e-17
3.586633874e-17
-9.061205178e-17
-9.173730754e-17
-9.373264128e-17
-9.624867402e-17
-9.746921645e-17
-4.489468743e-18
-1.412849368e-17
-1.725138236e-17
-6.712549661e-18
7.007707366e-17
1.173598955e-16
1.167367571e-16
1.158430954e-16
1.143600051e-16
1.125074505e-16
1.159628279e-16
1.19079463e-16
1.231700058e-16
1.178894335e-16
1.10606178e-16
2.842560883e-18
2.841900424e-18
2.865802943e-18
3.063557682e-18
3.073490462e-18
-9.139832771e-18
-9.194258649e-18
-9.387595809e-18
-9.271471352e-18
-4.399127444e-18
9.575803943e-19
9.909450639e-19
1.13831511e-18
1.340634072e-18
1.360707638e-18
1.360094398e-18
1.3955676e-18
1.532460774e-18
1.729946694e-18
1.658283372e-18
1.317760597e-18
1.345853167e-18
1.462847763e-18
1.628073802e-18
1.517218584e-18
6.079290316e-19
7.684884829e-19
1.126048484e-18
2.120161519e-18
1.985136289e-18
-5.424976173e-19
-5.124619916e-19
-5.053412472e-19
-6.015049557e-19
-9.468942776e-19
-1.859418205e-19
-1.387161058e-19
-8.616958561e-20
-4.782772578e-20
-2.437026436e-19
1.783438982e-18
1.811997545e-18
1.727117824e-18
1.997238164e-18
-1.186187667e-18
1.647385713e-18
1.801112558e-18
1.952648529e-18
1.938022428e-18
1.203019084e-18
2.433635999e-18
2.53598703e-18
2.574746853e-18
2.41376879e-18
1.538398828e-18
1.824156166e-18
1.961364479e-18
2.096326608e-18
2.147492511e-18
1.683240363e-18
8.23425088e-18
8.182259661e-18
7.803346101e-18
7.097608422e-18
5.63745612e-18
-2.540688867e-20
1.815514625e-19
6.684618634e-19
1.420069988e-18
4.326962516e-19
1.89734201e-18
1.618327172e-18
1.339203878e-18
1.349287009e-18
3.361349722e-18
3.273398589e-18
2.781123089e-18
1.174287044e-18
-1.904159542e-18
-5.248233083e-18
2.949192439e-08
8.687797771e-07
1.920850701e-07
-1.169289049e-06
7.325341103e-06
-7.692785817e-06
-1.298877772e-06
2.918529982e-06
-3.190487686e-07
-7.469483697e-08
1.187504424e-07
-3.412655649e-07
2.677552645e-07
-3.412819634e-07
-6.933384214e-06
2.391212365e-07
5.194663102e-07
7.942699083e-06
-2.891397525e-06
1.143645845e-05
6.22029513e-06
1.999867842e-06
5.517185963e-07
1.400451174e-07
2.407273422e-08
5.433646912e-09
8.892248139e-10
1.553822957e-10
-1.257541247e-11
4.717366376e-12
1.06627248e-12
3.016590207e-13
5.711670317e-14
1.88144862e-14
7.33537794e-15
1.929339554e-15
4.017358809e-15
3.498388803e-15
4.226283008e-15
2.028252664e-16
1.010035513e-15
-1.976273228e-15
7.304188245e-16
1.596511775e-15
-2.88479831e-15
9.493615407e-16
-1.840250926e-15
-2.662631067e-16
-3.447530729e-17
-3.858551551e-17
-9.692572022e-17
9.280700187e-17
8.785480544e-17
1.045765395e-16
1.193283956e-18
-5.93360366e-18
2.827973657e-18
3.255690252e-18
3.028610431e-18
6.168228466e-18
-1.178900515e-18
-6.683794525e-19
-1.054006889e-17
-1.192448298e-19
2.0974604e-19
8.311392771e-19
3.720824761e-18
1.369105746e-17
6.263196391e-18
-8.638641314e-18
-1.419044926e-08
-3.802861984e-08
3.183966951e-09
-3.069722539e-10
1.182783289e-11
-1.854314572e-07
-2.957662955e-05
3.763772164e-07
-2.44350479e-09
4.883347596e-10
4.499072084e-07
1.386790681e-06
4.344459788e-06
3.919984236e-08
7.377337007e-09
-8.312390577e-06
4.281709508e-05
6.272859081e-05
9.513525802e-07
7.502291347e-08
5.570210269e-06
-2.571765803e-05
-0.0005879184854
-2.68959902e-05
1.805905827e-07
-1.005069056e-06
-1.423081416e-05
-0.0001080359792
-1.316925697e-05
-1.503475764e-06
-6.442200785e-06
-9.937412984e-05
-0.0003120176016
-8.083646593e-05
8.451748797e-07
6.368856386e-07
3.929495094e-05
0.000661232641
5.876246557e-05
2.66662188e-06
-2.746384124e-07
-1.928076712e-05
9.074790781e-05
0.004322449601
5.315370152e-05
3.011007978e-07
1.940505271e-06
-7.880937569e-05
-0.0004005511929
-1.447187146e-05
7.670101327e-07
1.893011916e-06
7.562418604e-05
0.0003852765492
4.697790729e-06
3.781582666e-07
1.791099892e-06
-3.726640085e-06
-0.0004894803212
0.0002436693557
4.696894562e-06
0.0001049240131
4.198062025e-06
-4.468402265e-05
5.286624726e-05
-2.358720746e-06
-1.929203095e-05
2.141282326e-06
1.568249766e-06
-4.576904325e-05
-1.419139207e-06
-2.406112261e-05
4.964416938e-07
2.371302739e-06
-0.001796675204
-2.263083406e-07
-2.19045355e-05
5.13217523e-05
1.881562896e-05
-0.0009247582663
-2.69468976e-06
-3.178031685e-05
-5.119919805e-05
-4.41318086e-05
-0.0005515519551
-1.26779121e-06
-1.157361173e-05
-4.500482892e-05
-0.0001574313962
9.645257115e-06
-2.68704746e-07
-6.02054339e-07
2.713685884e-05
0.0003402479763
0.004966990447
3.320845026e-05
0.0001722316757
0.0006612635167
0.001056538682
-0.01219638469
1.595163424e-05
6.954277398e-05
0.000253314317
0.0006978808388
0.0004962235474
4.300061055e-06
1.411513591e-05
4.081176975e-05
9.81501387e-05
0.0001224739646
9.989270099e-07
2.464415338e-06
5.459560225e-06
1.036463239e-05
1.245639036e-05
2.152309375e-07
4.080220276e-07
7.026519092e-07
1.047477762e-06
1.093964453e-06
5.681698617e-08
6.214768422e-08
8.679059854e-08
1.072681998e-07
9.92646395e-08
6.021242494e-09
7.5023419e-09
8.597387541e-09
9.048285795e-09
7.876125659e-09
9.895637353e-10
1.126419511e-09
8.787899277e-10
9.175936991e-10
7.152882669e-10
1.562293279e-10
1.685960018e-10
2.580395867e-10
1.500693039e-10
8.159468887e-11
-1.285162036e-10
1.170740645e-11
3.083209689e-11
1.421677465e-11
1.555017492e-12
-1.160868841e-12
-2.785024578e-12
2.772725849e-12
2.181381229e-12
3.268841724e-12
9.142359807e-13
3.207788948e-13
-6.985943111e-13
3.71751204e-13
3.38863606e-13
1.711786377e-13
3.282468894e-13
2.789574905e-13
3.974928144e-13
-2.931327201e-14
6.105020167e-14
5.498095609e-14
4.95445584e-14
3.48687215e-14
4.682156589e-14
1.420197593e-14
1.090110032e-14
1.011046902e-15
-3.0353105e-15
5.594108296e-15
7.089279177e-15
5.207784521e-15
-6.373656966e-15
-1.639889424e-15
3.236401555e-16
-3.535253068e-15
4.411715428e-15
4.744596581e-15
2.090842541e-15
1.646619912e-15
4.103504725e-15
2.982619444e-15
5.681723448e-15
3.516782337e-15
-8.194477035e-16
3.326506502e-15
-2.325665425e-15
6.773538659e-15
7.373868939e-15
-8.450266402e-16
-4.495061579e-16
7.187574346e-16
6.430968233e-15
6.632846022e-15
-2.349839563e-15
4.946722219e-15
4.021377898e-15
4.101730073e-15
-5.016599876e-15
-1.558644073e-14
3.40811648e-15
1.914885444e-15
-6.794125641e-15
-8.935350958e-16
4.078998302e-15
-7.136199519e-15
9.433070156e-16
-4.990574945e-16
1.744558708e-15
-4.142934089e-16
2.486637805e-15
2.291904924e-15
1.263707799e-15
1.292553227e-16
-2.067250937e-15
6.258787228e-16
3.188053806e-16
1.074486844e-15
3.038432693e-17
7.310360155e-16
-2.667308104e-15
1.498113757e-15
-3.567480926e-16
2.158837437e-15
1.561596781e-15
1.38074221e-15
1.464122079e-15
-1.258264431e-16
-1.13299174e-14
1.667663442e-15
-1.583145423e-15
2.798610696e-14
-3.259977792e-15
-5.491184675e-16
6.165520575e-17
-3.203933395e-16
-4.383109433e-16
-9.621840706e-17
1.113196964e-16
-8.028808404e-16
-3.719323596e-18
4.081038702e-17
-5.046273904e-17
-9.107353242e-16
-4.895502742e-15
5.754013619e-18
-1.600012604e-15
9.998632017e-17
-6.510806223e-17
-2.402315317e-17
5.656220415e-17
1.060840248e-16
1.171184121e-16
1.229583495e-16
1.179739818e-16
1.060472934e-16
1.276486906e-16
1.376864826e-16
1.360141005e-16
1.183144444e-16
1.296437317e-16
1.315145743e-16
1.31849234e-16
9.942869628e-17
-3.209908433e-18
8.543531967e-17
-1.30435175e-17
3.269054502e-18
1.998562213e-18
-7.803435214e-18
2.326956445e-18
-6.558510627e-18
-7.673754161e-18
-9.823827402e-18
-2.840509605e-19
-5.103745096e-18
-2.015843777e-18
3.77250398e-19
7.95030363e-19
1.114297417e-18
1.158272727e-18
1.129369588e-18
1.182437588e-18
1.289417341e-18
1.238231122e-18
1.443702288e-18
1.211338267e-18
1.102759375e-18
9.568632913e-19
7.044030894e-19
1.228286193e-18
9.017326688e-19
7.289117399e-19
1.016424521e-18
2.19893846e-18
2.506802149e-18
1.864903342e-18
4.303183197e-19
-5.609803879e-19
-1.20523906e-18
-1.214785248e-18
-1.488838122e-18
-1.434605013e-19
-1.221251318e-20
5.205252303e-19
4.538929338e-19
8.992080212e-19
9.785238607e-19
1.834654389e-18
-1.00193643e-18
1.141267346e-19
-2.71578001e-18
3.475652523e-18
3.226705489e-18
2.850621909e-18
2.494396496e-18
3.060230925e-18
2.970757372e-18
2.862500811e-18
2.981117554e-18
2.808977763e-18
3.19422905e-18
3.283714258e-18
3.714785158e-18
4.751060331e-18
4.286295851e-18
6.457769074e-18
8.159839412e-18
9.205394977e-18
9.530251969e-18
5.608472404e-18
5.031885086e-18
4.167373062e-18
2.843758394e-18
3.938004352e-18
8.605874576e-18
1.046782238e-17
-2.342400638e-18
-1.215514689e-18
-2.042950969e-18
3.881438563e-19
-9.102059362e-19
7.077150046e-19
8.750045696e-19
-2.88828759e-18
1.969829303e-17
6.291770136e-18
-9.832202448e-17
1.007614747e-16
-6.594373957e-17
-2.809004163e-13
3.047596344e-12
-2.522933094e-14
-1.167080374e-14
1.395609498e-23
1.395550682e-23
1.395554957e-23
1.395575351e-23
1.395599169e-23
1.395621029e-23
1.395639266e-23
1.395654186e-23
1.395666721e-23
1.395677756e-23
1.395687784e-23
1.395437912e-23
1.395478527e-23
1.395714376e-23
1.395722331e-23
1.395729853e-23
1.395737009e-23
1.395743827e-23
1.395750328e-23
1.395756536e-23
1.39576247e-23
1.395768147e-23
1.395773582e-23
1.39577879e-23
1.395783784e-23
1.395788574e-23
1.395793171e-23
1.395797584e-23
1.395801823e-23
1.395805896e-23
1.39580981e-23
1.395813572e-23
1.395817189e-23
1.395820667e-23
1.395824011e-23
1.395827228e-23
1.395830324e-23
1.395833303e-23
1.395836169e-23
1.395838927e-23
1.395841581e-23
1.395844136e-23
1.395846596e-23
1.395848963e-23
1.395851243e-23
1.395853438e-23
1.395855551e-23
1.395857586e-23
1.395859546e-23
1.395861434e-23
1.395863252e-23
1.395865036e-23
1.395867115e-23
1.395873431e-23
1.395891865e-23
1.395914005e-23
1.026849305e-13
5.718026481e-12
2.473871907e-13
-1.461451657e-14
1.395831953e-23
1.395785352e-23
1.395775645e-23
1.395785234e-23
1.395804953e-23
1.395829135e-23
1.39585462e-23
1.395879535e-23
1.395902122e-23
1.395921589e-23
1.39593819e-23
1.395650424e-23
1.395725437e-23
1.395977086e-23
1.395987623e-23
1.395997269e-23
1.396006203e-23
1.396014528e-23
1.396022323e-23
1.396029648e-23
1.396036554e-23
1.396043079e-23
1.396049259e-23
1.396055123e-23
1.396060695e-23
1.396065999e-23
1.396071053e-23
1.396075875e-23
1.396080479e-23
1.39608488e-23
1.396089089e-23
1.396093117e-23
1.396096975e-23
1.396100672e-23
1.396104216e-23
1.396107617e-23
1.396110879e-23
1.396114002e-23
1.396117001e-23
1.396119891e-23
1.396122663e-23
1.396125325e-23
1.396127883e-23
1.396130343e-23
1.396132707e-23
1.396134981e-23
1.396137168e-23
1.396139272e-23
1.396141295e-23
1.396143243e-23
1.396145137e-23
1.396147163e-23
1.396150647e-23
1.396161341e-23
1.396185511e-23
1.396208181e-23
7.328611749e-11
-1.464494977e-10
-1.957567295e-13
2.972765545e-15
1.395739247e-23
1.395689897e-23
1.395682272e-23
1.395696287e-23
1.395722363e-23
1.395754831e-23
1.395789581e-23
1.395823478e-23
1.395854553e-23
1.395881864e-23
1.395905099e-23
1.395577523e-23
1.395686258e-23
1.395957205e-23
1.39597072e-23
1.395982859e-23
1.395993879e-23
1.39600395e-23
1.396013212e-23
1.396021781e-23
1.396029747e-23
1.396037186e-23
1.396044157e-23
1.39605071e-23
1.396056886e-23
1.396062721e-23
1.396068245e-23
1.396073483e-23
1.396078458e-23
1.39608319e-23
1.396087696e-23
1.396091992e-23
1.39609609e-23
1.396100005e-23
1.396103747e-23
1.396107327e-23
1.396110754e-23
1.396114027e-23
1.396117154e-23
1.396120159e-23
1.396123053e-23
1.396125826e-23
1.396128481e-23
1.39613103e-23
1.396133478e-23
1.396135829e-23
1.396138088e-23
1.39614026e-23
1.396142349e-23
1.396144369e-23
1.396146397e-23
1.396148861e-23
1.396153919e-23
1.39616745e-23
1.396191421e-23
1.396209509e-23
3.189529177e-09
3.435169365e-11
-4.163906754e-13
3.123416996e-13
1.395626889e-23
1.395528494e-23
1.395507542e-23
1.395525344e-23
1.3955637e-23
1.395612895e-23
1.395666798e-23
1.395721014e-23
1.395772309e-23
1.39581812e-23
1.395856721e-23
1.395489238e-23
1.395634619e-23
1.395934341e-23
1.395951863e-23
1.395967028e-23
1.395980464e-23
1.395992523e-23
1.396003444e-23
1.396013406e-23
1.396022551e-23
1.396030992e-23
1.396038822e-23
1.396046116e-23
1.396052935e-23
1.396059331e-23
1.396065346e-23
1.396071018e-23
1.396076377e-23
1.396081449e-23
1.396086259e-23
1.396090826e-23
1.396095169e-23
1.396099303e-23
1.396103243e-23
1.396107001e-23
1.396110589e-23
1.396114023e-23
1.396117296e-23
1.396120412e-23
1.396123403e-23
1.396126283e-23
1.396129043e-23
1.396131682e-23
1.396134211e-23
1.396136639e-23
1.396138969e-23
1.396141207e-23
1.396143361e-23
1.39614546e-23
1.396147673e-23
1.396150757e-23
1.396157413e-23
1.396172657e-23
1.396195304e-23
1.396210439e-23
4.249427355e-09
-1.261169673e-10
-1.763624518e-12
-6.958136258e-12
-2.863554412e-13
1.395509686e-23
1.395462189e-23
1.395464074e-23
1.395490988e-23
1.395531781e-23
1.395580819e-23
1.395634561e-23
1.39569007e-23
1.395744436e-23
1.395794657e-23
1.395376661e-23
1.395560495e-23
1.395905299e-23
1.395929279e-23
1.395948946e-23
1.395965606e-23
1.395980098e-23
1.395992947e-23
1.396004485e-23
1.396014942e-23
1.396024487e-23
1.396033254e-23
1.396041349e-23
1.396048857e-23
1.39605585e-23
1.396062384e-23
1.39606851e-23
1.396074268e-23
1.396079694e-23
1.396084816e-23
1.396089662e-23
1.396094254e-23
1.396098611e-23
1.396102751e-23
1.396106689e-23
1.396110439e-23
1.396114018e-23
1.396117439e-23
1.396120694e-23
1.396123789e-23
1.396126752e-23
1.396129604e-23
1.396132341e-23
1.396134956e-23
1.396137458e-23
1.396139859e-23
1.396142166e-23
1.396144394e-23
1.396146612e-23
1.396149096e-23
1.396152888e-23
1.396160961e-23
1.396177156e-23
1.396198341e-23
1.396211148e-23
-1.126812716e-07
-3.594056399e-09
-3.904042754e-11
-1.122699294e-11
-6.126293474e-13
1.395552866e-23
1.395463929e-23
1.395441381e-23
1.395454991e-23
1.395487057e-23
1.395529347e-23
1.395577586e-23
1.395629241e-23
1.395682394e-23
1.395734864e-23
1.395253377e-23
1.39547063e-23
1.395868837e-23
1.3959009e-23
1.395926897e-23
1.39594819e-23
1.395966024e-23
1.395981348e-23
1.395994797e-23
1.396006781e-23
1.396017579e-23
1.396027389e-23
1.396036363e-23
1.396044618e-23
1.396052251e-23
1.396059338e-23
1.396065944e-23
1.396072121e-23
1.396077914e-23
1.39608336e-23
1.396088493e-23
1.39609334e-23
1.396097924e-23
1.396102268e-23
1.396106389e-23
1.396110303e-23
1.396114027e-23
1.396117578e-23
1.396120968e-23
1.396124195e-23
1.396127261e-23
1.396130187e-23
1.396132997e-23
1.396135698e-23
1.396138285e-23
1.396140756e-23
1.396143129e-23
1.396145438e-23
1.396147798e-23
1.396150622e-23
1.396155205e-23
1.396164464e-23
1.396181105e-23
1.396200906e-23
1.396211784e-23
2.288009307e-07
3.01863251e-09
-1.390510069e-10
-1.969397383e-12
-3.146110565e-12
-6.037917299e-13
1.395485419e-23
1.395433235e-23
1.395431525e-23
1.39545513e-23
1.395491923e-23
1.395535948e-23
1.395584028e-23
1.395634321e-23
1.395685213e-23
1.395138865e-23
1.395381957e-23
1.395828961e-23
1.395867927e-23
1.395900631e-23
1.39592756e-23
1.395949721e-23
1.395968249e-23
1.395984086e-23
1.395997905e-23
1.396010157e-23
1.39602115e-23
1.396031103e-23
1.396040179e-23
1.396048507e-23
1.396056188e-23
1.396063304e-23
1.396069923e-23
1.3960761e-23
1.396081884e-23
1.396087313e-23
1.396092422e-23
1.39609724e-23
1.396101791e-23
1.396106097e-23
1.396110179e-23
1.396114053e-23
1.396117736e-23
1.396121243e-23
1.396124587e-23
1.396127773e-23
1.396130804e-23
1.396133688e-23
1.396136449e-23
1.396139102e-23
1.396141654e-23
1.396144109e-23
1.396146518e-23
1.396149053e-23
1.396152262e-23
1.396157642e-23
1.396167867e-23
1.396184628e-23
1.396203171e-23
1.396212291e-23
1.93691615e-07
1.091583626e-08
-1.508308751e-10
-2.201726384e-11
1.704995704e-10
1.660787002e-12
1.395542506e-23
1.395444526e-23
1.395417588e-23
1.395429415e-23
1.395460113e-23
1.395500661e-23
1.395546449e-23
1.395594967e-23
1.395644421e-23
1.395040237e-23
1.395303964e-23
1.395790735e-23
1.395834006e-23
1.395872061e-23
1.395904417e-23
1.395931319e-23
1.395953605e-23
1.395972292e-23
1.395988267e-23
1.396002187e-23
1.396014508e-23
1.396025544e-23
1.396035518e-23
1.396044598e-23
1.396052916e-23
1.396060576e-23
1.396067663e-23
1.396074245e-23
1.396080381e-23
1.396086118e-23
1.396091497e-23
1.396096553e-23
1.396101316e-23
1.396105812e-23
1.396110062e-23
1.396114088e-23
1.396117907e-23
1.396121535e-23
1.396124985e-23
1.396128272e-23
1.396131407e-23
1.396134394e-23
1.396137235e-23
1.396139945e-23
1.396142549e-23
1.396145082e-23
1.396147616e-23
1.396150376e-23
1.396154036e-23
1.396160181e-23
1.396171169e-23
1.396187844e-23
1.39620525e-23
1.396212772e-23
-8.112785508e-06
-6.399695127e-07
-1.939764238e-08
-2.842237427e-10
-7.384877757e-12
-5.49912702e-12
8.796282227e-13
1.395486652e-23
1.395421022e-23
1.395412045e-23
1.39543226e-23
1.395467371e-23
1.395510393e-23
1.395557575e-23
1.395606394e-23
1.394949661e-23
1.395231938e-23
1.395754645e-23
1.395800653e-23
1.395842635e-23
1.395879631e-23
1.395911165e-23
1.395937501e-23
1.395959425e-23
1.395977877e-23
1.395993688e-23
1.396007482e-23
1.396019697e-23
1.396030638e-23
1.396040524e-23
1.396049521e-23
1.396057758e-23
1.396065337e-23
1.396072343e-23
1.396078846e-23
1.396084903e-23
1.396090561e-23
1.396095863e-23
1.396100842e-23
1.39610553e-23
1.396109952e-23
1.396114131e-23
1.396118087e-23
1.396121838e-23
1.396125399e-23
1.396128784e-23
1.396132007e-23
1.396135081e-23
1.396138014e-23
1.396140811e-23
1.396143492e-23
1.396146105e-23
1.396148758e-23
1.396151761e-23
1.39615591e-23
1.396162772e-23
1.396174346e-23
1.396190796e-23
1.396207178e-23
1.396213176e-23
2.625528601e-06
2.17650053e-07
2.482981715e-09
-7.186915816e-10
-5.222193515e-11
-7.088940535e-13
-3.040227247e-12
1.395558984e-23
1.39544219e-23
1.395402391e-23
1.395407707e-23
1.395435125e-23
1.395474155e-23
1.395519449e-23
1.395567581e-23
1.394858698e-23
1.395158542e-23
1.39571828e-23
1.395766608e-23
1.395811858e-23
1.395852958e-23
1.395888976e-23
1.395919601e-23
1.395945191e-23
1.395966542e-23
1.39598456e-23
1.396000034e-23
1.396013557e-23
1.396025545e-23
1.396036292e-23
1.396046007e-23
1.39605485e-23
1.396062946e-23
1.396070395e-23
1.39607728e-23
1.396083667e-23
1.396089613e-23
1.396095167e-23
1.396100368e-23
1.396105251e-23
1.396109846e-23
1.396114179e-23
1.396118273e-23
1.396122148e-23
1.39612582e-23
1.396129306e-23
1.396132618e-23
1.396135772e-23
1.396138779e-23
1.396141657e-23
1.396144425e-23
1.39614714e-23
1.396149941e-23
1.396153229e-23
1.396157881e-23
1.3961654e-23
1.396177411e-23
1.396193546e-23
1.396209e-23
1.396213543e-23
-2.457131608e-07
1.840308555e-05
-3.300078579e-07
-1.98899043e-08
-2.067368454e-10
9.202852564e-12
-1.697107106e-12
-7.024379551e-13
1.395514544e-23
1.395423852e-23
1.395400452e-23
1.395413534e-23
1.395444793e-23
1.395485764e-23
1.395531531e-23
1.39477101e-23
1.395086348e-23
1.395681935e-23
1.395731898e-23
1.395779701e-23
1.39582428e-23
1.395864454e-23
1.395899439e-23
1.395929077e-23
1.395953824e-23
1.395974499e-23
1.395991984e-23
1.39600703e-23
1.396020198e-23
1.396031885e-23
1.396042369e-23
1.396051854e-23
1.396060492e-23
1.396068403e-23
1.396075683e-23
1.396082411e-23
1.396088654e-23
1.396094465e-23
1.396099892e-23
1.396104974e-23
1.396109744e-23
1.396114233e-23
1.396118465e-23
1.396122464e-23
1.396126247e-23
1.396129833e-23
1.396133237e-23
1.396136473e-23
1.396139555e-23
1.396142503e-23
1.396145352e-23
1.396148181e-23
1.396151172e-23
1.396154786e-23
1.396159942e-23
1.396168054e-23
1.396180381e-23
1.396196151e-23
1.396210755e-23
1.396213874e-23
-2.73195132e-05
-1.357409284e-06
-5.843285168e-08
-1.314986961e-08
-8.352866979e-10
9.16008684e-12
1.470088611e-12
-2.140033622e-12
1.395636409e-23
1.395491435e-23
1.395424038e-23
1.395413076e-23
1.395431389e-23
1.395464682e-23
1.395505559e-23
1.394699641e-23
1.395026841e-23
1.395650023e-23
1.395700035e-23
1.395748891e-23
1.395795597e-23
1.395838875e-23
1.395877616e-23
1.395911181e-23
1.395939552e-23
1.395963261e-23
1.395983122e-23
1.395999973e-23
1.396014511e-23
1.39602726e-23
1.396038589e-23
1.396048763e-23
1.396057974e-23
1.396066367e-23
1.396074058e-23
1.396081139e-23
1.396087685e-23
1.39609376e-23
1.396099416e-23
1.396104699e-23
1.396109647e-23
1.396114292e-23
1.396118664e-23
1.396122786e-23
1.39612668e-23
1.396130365e-23
1.396133859e-23
1.396137178e-23
1.396140337e-23
1.396143363e-23
1.396146302e-23
1.396149259e-23
1.396152462e-23
1.396156424e-23
1.396162073e-23
1.396170704e-23
1.39618324e-23
1.396198606e-23
1.396212434e-23
1.396214169e-23
-4.424071263e-05
-3.102427419e-06
-3.96261563e-08
-4.167153227e-08
-2.715032772e-09
5.056913398e-11
1.05359048e-11
-2.561369999e-12
1.39577607e-23
1.39560729e-23
1.395487413e-23
1.395440509e-23
1.395439984e-23
1.395462383e-23
1.395496057e-23
1.394658123e-23
1.394992924e-23
1.395628411e-23
1.395676347e-23
1.395724114e-23
1.395770855e-23
1.395815338e-23
1.395856328e-23
1.395892839e-23
1.39592439e-23
1.395951084e-23
1.39597348e-23
1.395992347e-23
1.396008441e-23
1.396022386e-23
1.39603465e-23
1.39604557e-23
1.396055391e-23
1.396064291e-23
1.396072408e-23
1.396079852e-23
1.39608671e-23
1.396093054e-23
1.396098943e-23
1.39610443e-23
1.396109556e-23
1.396114358e-23
1.396118869e-23
1.396123114e-23
1.396127118e-23
1.396130902e-23
1.396134486e-23
1.396137886e-23
1.396141124e-23
1.396144232e-23
1.396147275e-23
1.396150377e-23
1.396153813e-23
1.396158137e-23
1.396164267e-23
1.39617335e-23
1.396186002e-23
1.396200939e-23
1.396214052e-23
1.396214416e-23
-1.003034424e-05
-9.258495052e-07
-1.852389913e-05
2.785557154e-07
2.961701656e-08
1.165466145e-09
5.673945554e-11
1.309442688e-11
2.343419269e-12
1.395751532e-23
1.395595897e-23
1.395501437e-23
1.395472501e-23
1.395480789e-23
1.395505733e-23
1.394654221e-23
1.394992777e-23
1.395621551e-23
1.39566541e-23
1.395709859e-23
1.395754262e-23
1.395797583e-23
1.395838653e-23
1.395876353e-23
1.395909866e-23
1.395938862e-23
1.395963517e-23
1.395984362e-23
1.396002073e-23
1.396017298e-23
1.396030568e-23
1.396042287e-23
1.396052752e-23
1.396062182e-23
1.396070742e-23
1.396078558e-23
1.396085734e-23
1.39609235e-23
1.396098476e-23
1.396104167e-23
1.396109472e-23
1.396114432e-23
1.39611908e-23
1.396123449e-23
1.396127562e-23
1.396131444e-23
1.396135116e-23
1.396138599e-23
1.396141917e-23
1.396145113e-23
1.396148273e-23
1.396151539e-23
1.39615523e-23
1.39615993e-23
1.396166525e-23
1.396176003e-23
1.39618871e-23
1.396203213e-23
1.396215656e-23
1.396214673e-23
-1.010988706e-05
-2.417360749e-06
-2.984844226e-07
-1.203524835e-07
5.67698729e-08
7.398117942e-09
4.749923481e-10
1.481336673e-11
-1.441261167e-12
1.396275553e-23
1.395740814e-23
1.395604945e-23
1.395534725e-23