/*--------------------------------*- C++ -*----------------------------------*\
  =========                 |
  \\      /  F ield         | OpenFOAM: The Open Source CFD Toolbox
   \\    /   O peration     | Website:  https://openfoam.org
    \\  /    A nd           | Version:  10
     \\/     M anipulation  |
\*---------------------------------------------------------------------------*/
FoamFile
{
    format      ascii;
    class       volScalarField;
    location    "0.02498436188";
    object      ddt0(rho,HCCOH);
}
// * * * * * * * * * * * * * * * * * * * * * * * * * * * * * * * * * * * * * //

dimensions      [1 -3 -1 0 0 0 0];

internalField   nonuniform List<scalar> 
5170
(
3.342785098e-113
5.852720889e-112
5.759282012e-111
1.001371651e-109
5.732725351e-108
1.217392739e-108
2.207730911e-107
2.188994597e-106
4.630577121e-105
6.069180823e-103
4.458272731e-104
8.434772341e-103
8.773921031e-102
2.548813377e-100
5.673199213e-98
1.644277715e-99
3.286148515e-98
3.783070602e-97
1.586311516e-95
4.847422608e-93
6.123730208e-95
1.315751734e-93
1.773369435e-92
1.064057629e-90
3.889970388e-88
2.310811722e-90
5.451649397e-89
9.058333002e-88
7.51063674e-86
2.993306783e-83
8.865348987e-86
2.349470662e-84
5.018280334e-83
5.509494334e-81
2.242610353e-78
3.468147121e-81
1.055913793e-79
2.990519246e-78
4.175378571e-76
1.65406044e-73
1.385911857e-76
4.950109784e-75
1.89706592e-73
3.264989636e-71
1.209909154e-68
5.660780892e-72
2.41621988e-70
1.268197303e-68
2.622287716e-66
8.823892466e-64
2.360544394e-67
1.222948892e-65
8.805184615e-64
2.147806886e-61
6.438097289e-59
1.002465223e-62
6.380854281e-61
6.2800331e-59
1.772834108e-56
4.706120355e-54
4.314017971e-58
3.404900428e-56
4.52005753e-54
1.457065925e-51
3.45063478e-49
1.870736579e-53
1.838597402e-51
3.236189083e-49
1.174854067e-46
2.540244359e-44
8.091140779e-49
9.94592052e-47
2.272770857e-44
9.164199738e-42
1.877681887e-39
3.460022796e-44
5.32109364e-42
1.546647608e-39
6.829514373e-37
1.393475965e-34
1.432871291e-39
2.766736644e-37
1.002355211e-34
-1.533037803e-17
-7.230186317e-16
-9.12419801e-16
4.150160801e-16
-2.46353044e-15
1.077971507e-15
-2.490197502e-15
3.72383413e-15
-2.733471879e-14
1.066006699e-14
-3.019186088e-14
-1.754764284e-13
-4.97324993e-14
-3.085697242e-13
-2.80867033e-12
-2.542822225e-11
-1.540373679e-10
-2.501278159e-13
2.787888869e-13
3.192453084e-13
3.233105817e-13
3.080639308e-13
-1.578130751e-13
1.401982236e-13
-4.243402072e-14
-9.638803828e-14
-4.003252577e-13
-1.430174e-13
-3.709396342e-14
-1.084230077e-14
5.671006084e-14
3.832672381e-15
-5.289083577e-15
-5.704668031e-14
-8.498951454e-14
-4.102232899e-15
-1.279676291e-12
1.51653444e-12
-9.389813129e-13
5.539760126e-13
1.32150781e-13
3.973711418e-11
3.839995924e-09
-8.754344315e-11
2.208865143e-11
9.999117912e-11
-9.615697321e-09
-7.822257469e-09
-1.694116761e-09
2.957534924e-09
-1.634017397e-08
-1.146285064e-07
-2.007001275e-07
8.847191377e-09
8.345790399e-09
-2.800996851e-08
-6.293846136e-07
-6.388625105e-07
5.787317071e-08
5.149334749e-08
1.165248449e-07
-3.088413334e-07
-5.646285329e-07
-1.198344321e-06
-7.115244708e-07
6.673447446e-08
-6.417551858e-08
9.833946807e-08
-6.723376471e-07
-4.992756137e-07
5.044157234e-08
-8.223324712e-08
2.492399154e-08
-1.129161715e-07
-1.561639405e-07
1.445040692e-07
-8.494302436e-08
-1.322882506e-08
1.117200285e-08
-1.921277118e-08
-1.069039315e-07
-7.38449672e-08
-4.079779494e-08
-5.753172593e-08
-8.793651944e-08
-1.037716286e-07
-5.869077856e-08
-4.888997239e-08
-6.156651611e-08
-8.092490281e-08
-4.663750616e-08
-3.691346945e-08
-5.683752918e-08
-3.127649884e-08
-3.522803148e-08
-3.586194703e-08
-1.759995659e-08
-4.941035955e-08
-4.378607396e-08
-4.044900166e-08
-2.682883093e-08
-1.230671543e-07
-3.118418131e-08
-3.927532398e-08
-3.44164112e-08
-1.551836317e-08
-4.228775045e-08
-1.385327256e-07
-3.846109901e-08
-2.99129289e-08
-1.361166119e-07
-4.434009453e-08
-5.208437119e-07
-1.214661456e-07
-9.029070403e-08
2.398171399e-08
2.068190457e-08
-3.725243162e-12
-2.519590838e-11
-4.31919673e-10
-7.57094684e-09
-7.945378181e-08
-2.128020457e-10
-1.758294935e-09
-2.052005601e-08
-2.237459102e-07
-1.541223852e-06
-7.792615671e-10
-7.22987824e-09
-8.839229566e-08
-7.465812863e-07
-3.403369572e-06
-1.211635677e-09
-4.020931044e-09
-8.876667445e-08
-9.254725257e-07
-3.74651054e-06
-5.437129168e-09
-2.390435186e-08
-2.221320757e-07
-1.208012116e-06
-2.703923957e-06
-1.759852279e-08
-1.245795023e-07
-7.004972191e-07
-1.757434597e-06
-2.897004019e-06
-7.001505228e-09
-1.162843267e-07
-5.737009555e-07
-1.899153607e-06
-2.434737997e-06
5.234681679e-08
1.260564255e-07
-3.692468919e-08
-7.144244591e-07
-1.304519767e-06
1.359197711e-07
3.426542386e-07
5.294615978e-07
7.339686622e-07
6.794985119e-07
4.770656334e-08
2.580372755e-07
6.336097334e-07
7.504631296e-07
1.403107074e-06
-1.126594171e-07
-3.193660911e-07
-1.340291945e-07
5.389845111e-07
1.510800831e-06
-2.231260047e-06
-1.653015215e-06
-9.842483229e-07
-4.1780045e-07
5.998951095e-07
-7.446342774e-07
-2.233404627e-07
2.745654948e-07
6.046341372e-07
7.205033007e-07
1.151469213e-06
1.433268977e-06
2.301250027e-06
2.683855141e-06
2.398416605e-06
3.094212121e-06
3.097123501e-06
3.74088626e-06
3.477587984e-06
2.800141442e-06
4.172143448e-06
4.051073375e-06
4.622090526e-06
5.187342926e-06
5.75928714e-06
2.724091272e-06
3.335438455e-06
4.679808122e-06
6.780547625e-06
9.132337117e-06
1.002643724e-05
1.18844899e-05
1.538396296e-05
2.014001341e-05
2.65157052e-05
2.341866233e-05
2.714337014e-05
3.49825119e-05
4.733260798e-05
6.660835758e-05
3.71008471e-05
4.22932038e-05
5.252955456e-05
6.887371311e-05
9.247647421e-05
4.939833895e-05
5.348293718e-05
6.190350017e-05
7.331893493e-05
8.666603037e-05
5.463410733e-05
5.6153278e-05
5.932149498e-05
6.259199602e-05
6.581821755e-05
4.751551323e-05
4.789242952e-05
4.788423508e-05
4.748323516e-05
4.654065443e-05
3.830614169e-05
3.830386736e-05
3.78587095e-05
3.692849594e-05
3.521565799e-05
3.29433522e-05
3.285044772e-05
3.229415554e-05
3.137491554e-05
3.051191671e-05
3.068034704e-05
3.052620152e-05
3.022922567e-05
2.967478639e-05
2.907849246e-05
2.983860797e-05
2.977452027e-05
2.949906031e-05
2.907154403e-05
2.867369335e-05
2.79107258e-05
2.769847677e-05
2.751442894e-05
2.713304864e-05
2.661637218e-05
2.413987114e-05
2.399119937e-05
2.380689478e-05
2.345581834e-05
2.297499179e-05
1.94696581e-05
1.941071581e-05
1.921976909e-05
1.892492064e-05
1.85624942e-05
1.496316657e-05
1.488430506e-05
1.47515397e-05
1.451962476e-05
1.424373293e-05
1.106800692e-05
1.102614584e-05
1.091830292e-05
1.076313795e-05
1.053073326e-05
7.959903025e-06
7.919645887e-06
7.84871539e-06
7.742407095e-06
7.585103805e-06
5.528621837e-06
5.506962258e-06
5.462686913e-06
5.388261417e-06
5.285016735e-06
3.695605004e-06
3.682783622e-06
3.653109489e-06
3.606664935e-06
3.546108807e-06
2.365458987e-06
2.35730318e-06
2.339358942e-06
2.313005688e-06
2.274453019e-06
1.447753689e-06
1.443998317e-06
1.43385686e-06
1.41829522e-06
1.397313592e-06
8.489870053e-07
8.471081403e-07
8.416260074e-07
8.333944556e-07
8.21716101e-07
4.776300226e-07
4.762335704e-07
4.736264193e-07
4.694458978e-07
4.637494353e-07
2.571194899e-07
2.567450856e-07
2.554932717e-07
2.533065427e-07
2.506212375e-07
1.325601826e-07
1.323805419e-07
1.31800947e-07
1.308358377e-07
1.295527349e-07
6.52240976e-08
6.514003403e-08
6.489862705e-08
6.449541319e-08
6.392022143e-08
3.053603651e-08
3.051916091e-08
3.042599235e-08
3.026254431e-08
3.003095017e-08
1.358551957e-08
1.358008207e-08
1.354929679e-08
1.34907443e-08
1.340494142e-08
5.730434801e-09
5.730976337e-09
5.722273649e-09
5.703266386e-09
5.676427515e-09
2.290032813e-09
2.290793895e-09
2.289235979e-09
2.284336567e-09
2.277218018e-09
8.661652505e-10
8.669214214e-10
8.670610478e-10
8.662266529e-10
8.648109893e-10
3.100933002e-10
3.105006641e-10
3.108315627e-10
3.109187827e-10
3.108915175e-10
1.050738359e-10
1.052628428e-10
1.054704972e-10
1.056412281e-10
1.058039167e-10
3.368344172e-11
3.375947107e-11
3.385922739e-11
3.39589022e-11
3.407528066e-11
9.916552211e-12
9.939776587e-12
9.976017325e-12
1.001717262e-11
1.006760045e-11
2.847219187e-12
2.856195218e-12
2.869684944e-12
2.885840839e-12
2.905950312e-12
7.75235001e-13
7.782292659e-13
7.828532802e-13
7.884181166e-13
7.955091931e-13
2.003167282e-13
2.0118101e-13
2.026018891e-13
2.043811122e-13
2.065994408e-13
4.910854885e-14
4.935551327e-14
4.975765581e-14
5.027684558e-14
5.093109352e-14
1.142577475e-14
1.148975337e-14
1.159744301e-14
1.173734014e-14
1.19155503e-14
2.521319178e-15
2.536781753e-15
2.563723474e-15
2.599072223e-15
2.644654669e-15
5.267135284e-16
5.303021292e-16
5.366284368e-16
5.450345754e-16
5.559086709e-16
1.040049357e-16
1.047894646e-16
1.061842096e-16
1.080510944e-16
1.104642866e-16
1.885287343e-17
1.901044912e-17
1.928574839e-17
1.96288348e-17
2.007232525e-17
3.004147529e-18
3.03789781e-18
3.098657946e-18
3.180127646e-18
3.279492775e-18
4.185715381e-19
4.240761262e-19
4.339985504e-19
4.473093959e-19
4.640205004e-19
5.004499112e-20
5.054169127e-20
5.120936778e-20
5.239159703e-20
5.316660076e-20
-2.134425596e-26
-1.861832731e-26
-1.567163924e-26
-9.470246921e-27
-7.753497538e-27
-2.31638283e-26
-2.433145823e-26
-1.952113869e-26
2.031484166e-26
3.931339567e-26
-1.699123293e-26
-3.889966176e-26
-3.466492881e-26
-2.103111436e-26
-7.20056616e-27
1.033288885e-25
1.274892142e-25
9.531914406e-26
-8.96521133e-27
-5.062197401e-26
1.478413988e-25
1.487496238e-25
1.472955966e-25
1.362413944e-25
1.353139141e-25
1.040446705e-25
1.373971885e-25
1.513592242e-25
1.544592645e-25
1.286104631e-25
2.0832936e-27
7.665881593e-27
6.113249135e-27
-6.344032028e-27
-3.22284186e-26
-1.791046862e-07
-7.327372788e-07
-4.508110639e-06
-2.702877679e-06
-3.310421099e-06
-3.27933718e-06
-3.244394905e-06
-1.453796855e-06
8.998843695e-07
1.386396452e-06
1.914198908e-06
1.005547492e-06
3.441067426e-06
2.893608333e-06
3.146747095e-06
1.039593698e-06
1.134577753e-05
2.896700946e-05
8.977265037e-05
0.0001138909404
9.803301371e-05
6.805254225e-05
4.526034583e-05
3.453215189e-05
2.865674703e-05
2.838358225e-05
2.785661783e-05
2.63235168e-05
2.273512872e-05
1.822223568e-05
1.397562629e-05
1.045437678e-05
7.516541097e-06
5.246808533e-06
3.504637616e-06
2.255080449e-06
1.385328989e-06
8.16731951e-07
4.597986296e-07
2.489792045e-07
1.289721702e-07
6.376054605e-08
3.000302153e-08
1.341016107e-08
5.681401478e-09
2.280959397e-09
8.678417471e-10
3.12613089e-10
1.065941632e-10
3.437412203e-11
1.016761372e-11
2.939223303e-12
8.063691342e-13
2.099599551e-13
5.184301373e-14
1.21537286e-14
2.701888865e-15
5.69316273e-16
1.134369183e-16
2.073300178e-17
3.385069196e-18
4.827924373e-19
5.475771598e-20
-2.408898063e-26
-1.781641466e-26
-1.340751338e-25
-2.667522281e-26
1.211264009e-25
1.487378358e-25
-2.500354179e-26
9.234021569e-08
-6.602667886e-08
-7.982583302e-09
-2.427992066e-08
-7.677307674e-09
-3.716798637e-06
-1.141963961e-05
-4.274483031e-08
-1.606766243e-07
-5.926217981e-08
-7.698894015e-06
-7.982935554e-06
4.922108861e-06
-4.464040347e-09
-1.321770142e-08
-8.153114539e-06
-2.829315321e-05
4.669205487e-05
3.467420975e-07
3.608672524e-07
-2.871124226e-06
4.040306366e-05
0.0004196047316
9.985720006e-06
-1.425855389e-07
-7.172272979e-06
-4.233880282e-05
-6.105660978e-05
-1.24985827e-05
-1.419972281e-06
-3.919196506e-06
-1.353882031e-05
-0.0001508040516
-1.07692145e-05
2.67544024e-06
-1.05795071e-06
1.568844926e-05
0.0003026852024
0.0001104075503
1.256667713e-05
1.90806185e-06
8.504266218e-06
5.28629662e-05
-0.0009696870242
3.000932931e-05
1.567089744e-06
-6.716384459e-06
-0.000153940862
-4.03211249e-05
-5.926813283e-05
2.337977634e-06
1.245189449e-06
7.817070054e-05
0.001242255748
-9.721304472e-06
2.041371161e-06
6.187562663e-06
1.159431948e-05
-0.001018000184
0.0002039263728
2.789239418e-06
1.156068899e-05
1.132774725e-05
2.635437817e-05
-2.008986842e-05
2.114472791e-06
2.423978318e-06
3.668069898e-06
6.433309889e-06
6.670172001e-06
3.328022591e-06
3.820031871e-06
6.283023107e-06
6.48309058e-06
-0.0002774286686
3.28672803e-06
3.407687187e-06
2.927615366e-05
4.613712252e-06
-0.0009018078056
9.780112013e-06
3.05389729e-06
-1.590031337e-05
-5.613060879e-05
-0.001190424432
3.000716035e-05
2.728728747e-05
6.267620525e-06
-6.370175715e-05
-0.0002217634729
0.0001189419534
0.0001901806766
0.0002741626278
0.0002685685321
3.404699501e-05
0.0001474987882
0.0002253601476
0.0003854383031
0.0007674437547
0.001395300305
0.0001157543228
0.000144600179
0.0001778164647
0.0002442761582
0.0003460260518
7.331715599e-05
7.74470523e-05
7.56678614e-05
6.57916608e-05
4.570589247e-05
4.534043622e-05
4.185194322e-05
3.505515582e-05
2.579239932e-05
1.501261552e-05
3.253911795e-05
2.88372755e-05
2.418562449e-05
1.915995041e-05
1.446299758e-05
2.834104824e-05
2.595445501e-05
2.326769172e-05
2.054743841e-05
1.808340459e-05
2.76898214e-05
2.614530635e-05
2.444087094e-05
2.265106983e-05
2.084816664e-05
2.750555488e-05
2.622547404e-05
2.479546772e-05
2.317886853e-05
2.142345977e-05
2.569627125e-05
2.459248132e-05
2.322701726e-05
2.165515439e-05
1.990353589e-05
2.223001068e-05
2.127716372e-05
2.004925102e-05
1.86054217e-05
1.701534862e-05
1.796605153e-05
1.719803884e-05
1.618266293e-05
1.498657964e-05
1.367415042e-05
1.381056775e-05
1.323654514e-05
1.246221326e-05
1.154677317e-05
1.054384291e-05
1.024950154e-05
9.849798846e-06
9.291621495e-06
8.62655433e-06
7.898418135e-06
7.396994222e-06
7.123127542e-06
6.736134813e-06
6.27051957e-06
5.758713622e-06
5.166975184e-06
4.989876243e-06
4.729546595e-06
4.415335179e-06
4.065144524e-06
3.474542051e-06
3.363266437e-06
3.197030215e-06
2.99147251e-06
2.76141965e-06
2.237074882e-06
2.172841644e-06
2.070847184e-06
1.942932138e-06
1.797754945e-06
1.37892049e-06
1.343554358e-06
1.2844778e-06
1.20812836e-06
1.120887764e-06
8.14063851e-07
7.959893887e-07
7.631783522e-07
7.198719618e-07
6.695404351e-07
4.608942833e-07
4.520928197e-07
4.347043904e-07
4.111732634e-07
3.833781757e-07
2.49994557e-07
2.460568386e-07
2.372919356e-07
2.250145689e-07
2.103295246e-07
1.297452174e-07
1.281405806e-07
1.239383649e-07
1.178126863e-07
1.103843628e-07
6.42802687e-08
6.371389285e-08
6.179873127e-08
5.889218527e-08
5.530164514e-08
3.032859521e-08
3.017291164e-08
2.935073442e-08
2.804135392e-08
2.638930095e-08
1.359819792e-08
1.358055425e-08
1.325071022e-08
1.269149579e-08
1.197123509e-08
5.784531427e-09
5.799900761e-09
5.676890275e-09
5.451677276e-09
5.154317642e-09
2.331790778e-09
2.347708197e-09
2.305396803e-09
2.22006549e-09
2.104060302e-09
8.901153022e-10
9.001123373e-10
8.868787176e-10
8.564933733e-10
8.138148998e-10
3.21698629e-10
3.267747461e-10
3.231030529e-10
3.129530561e-10
2.981535069e-10
1.100814101e-10
1.123328658e-10
1.114721628e-10
1.082981563e-10
1.034650771e-10
3.564681207e-11
3.654356173e-11
3.639734731e-11
3.547153259e-11
3.398599287e-11
1.058099818e-11
1.089379924e-11
1.088753388e-11
1.064180342e-11
1.022287571e-11
3.07323506e-12
3.179618985e-12
3.189883396e-12
3.128143228e-12
3.014209335e-12
8.464133467e-13
8.800914898e-13
8.86381906e-13
8.721635574e-13
8.430266563e-13
2.211681078e-13
2.311248167e-13
2.336991776e-13
2.307369867e-13
2.237424564e-13
5.485268696e-14
5.760881947e-14
5.848262504e-14
5.794226106e-14
5.636760217e-14
1.291269876e-14
1.363061584e-14
1.389317191e-14
1.381318814e-14
1.348197934e-14
2.884209051e-15
3.060400785e-15
3.132278853e-15
3.125438205e-15
3.060749213e-15
6.105070008e-16
6.514633268e-16
6.696758417e-16
6.706559119e-16
6.588722992e-16
1.221477761e-16
1.309817917e-16
1.350726179e-16
1.355910898e-16
1.334788288e-16
2.232881401e-17
2.414449364e-17
2.517654511e-17
2.540800368e-17
2.514203726e-17
3.739538269e-18
4.094109826e-18
4.237131713e-18
4.285016576e-18
4.233938915e-18
5.358437604e-19
5.893336044e-19
6.121355019e-19
6.162234657e-19
6.191133641e-19
6.040170484e-20
5.59820626e-20
-7.389137581e-20
-9.516031504e-20
-1.104141741e-19
-2.107211491e-26
9.061886812e-27
2.190972289e-26
1.745083891e-26
7.260457673e-26
7.106655101e-26
1.316492769e-25
-8.527148897e-26
-8.820375736e-26
-5.34469831e-26
-8.038167227e-26
-1.199425342e-25
-1.103226047e-25
-1.122615517e-25
-6.739060154e-26
-1.074367206e-25
-1.227355984e-25
-3.319558163e-26
-5.529750073e-25
-3.822571692e-25
6.440642265e-26
4.880541064e-26
4.390934724e-26
-1.076335233e-25
-1.900703697e-26
1.526062826e-25
1.196505677e-25
8.240207256e-26
-1.395365948e-26
2.362541698e-26
5.340070234e-26
4.578868535e-26
-6.488490204e-26
-2.170089839e-25
-8.35564049e-26
-3.862858626e-10
-1.009832004e-11
2.487826748e-12
1.381711254e-12
5.604725197e-13
2.286130855e-13
9.170966463e-14
3.537650539e-14
1.31648334e-14
4.674308732e-15
1.570126739e-15
4.888367151e-16
1.31924871e-16
6.2343024e-64
1.10058861e-67
1.866583598e-71
0
0
0
0
0
0
0
0
0
0
0
0
0
0
0
0
0
0
0
0
0
0
0
0
0
0
0
0
0
0
0
0
0
0
0
0
0
0
0
0
0
0
0
0
-1.893578184e-09
6.398177528e-10
1.004436616e-10
1.422379661e-11
3.075564663e-12
9.295332258e-13
3.347012573e-13
1.376887294e-13
5.81605532e-14
2.39991873e-14
9.364830143e-15
3.373191373e-15
1.093354326e-15
3.020311145e-16
4.202747574e-17
3.691630055e-73
0
0
0
0
0
0
0
0
0
0
0
0
0
0
0
0
0
0
0
0
0
0
0
0
0
0
0
0
0
0
0
0
0
0
0
0
0
0
0
0
0
0
0
0
1.852920153e-10
1.187057044e-09
2.795374876e-10
3.222736089e-11
5.815221399e-12
1.804679497e-12
8.164123668e-13
4.383317726e-13
2.339495168e-13
1.164014196e-13
5.263840633e-14
2.134100519e-14
7.692128031e-15
2.442497938e-15
6.625307837e-16
1.37463546e-16
0
0
0
0
0
0
0
0
0
0
0
0
0
0
0
0
0
0
0
0
0
0
0
0
0
0
0
0
0
0
0
0
0
0
0
0
0
0
0
0
0
0
0
0
1.159780805e-08
5.283824777e-09
5.297117246e-09
4.887449082e-10
5.280897183e-11
1.103928758e-11
4.430810942e-12
2.346911471e-12
1.296589882e-12
6.738372689e-13
3.182724769e-13
1.348908723e-13
5.08656228e-14
1.695208473e-14
4.959434441e-15
1.250685447e-15
2.513834303e-16
0
0
0
0
0
0
0
0
0
0
0
0
0
0
0
0
0
0
0
0
0
0
0
0
0
0
0
0
0
0
0
0
0
0
0
0
0
0
0
0
0
0
0
-8.355367522e-08
-1.400356523e-08
-1.672188895e-09
1.89397504e-09
2.927137738e-10
6.18837975e-11
2.407354595e-11
1.226832283e-11
6.537133014e-12
3.337819051e-12
1.575061159e-12
6.750293086e-13
2.60507066e-13
8.919207083e-14
2.684022668e-14
7.02983392e-15
1.561252377e-15
2.788579722e-16
0
0
0
0
0
0
0
0
0
0
0
0
0
0
0
0
0
0
0
0
0
0
0
0
0
0
0
0
0
0
0
0
0
0
0
0
0
0
0
0
0
0
-3.164189792e-07
-2.42884071e-08
-2.247241391e-08
-3.385230272e-09
1.246701969e-09
3.088957469e-10
9.80298757e-11
4.328130641e-11
2.178976263e-11
1.088258428e-11
5.092015184e-12
2.178333277e-12
8.400617087e-13
2.889013737e-13
8.758921894e-14
2.342858433e-14
5.409403966e-15
1.071832542e-15
1.479477038e-16
0
0
0
0
0
0
0
0
0
0
0
0
0
0
0
0
0
0
0
0
0
0
0
0
0
0
0
0
0
0
0
0
0
0
0
0
0
0
0
0
0
1.774748534e-08
-2.134860631e-08
-3.625187817e-08
-4.184653867e-08
-2.575084678e-09
9.247368336e-10
2.507336355e-10
1.00239052e-10
5.020693342e-11
2.565349281e-11
1.232604056e-11
5.401575239e-12
2.126037335e-12
7.453618164e-13
2.315164877e-13
6.335634043e-14
1.502870921e-14
3.127228824e-15
5.315343122e-16
1.419693694e-17
0
0
0
0
0
0
0
0
0
0
0
0
0
0
0
0
0
0
0
0
0
0
0
0
0
0
0
0
0
0
0
0
0
0
0
0
0
0
0
0
9.855782277e-07
6.583272112e-08
-4.02371416e-08
-6.098302049e-08
-3.334575641e-08
3.758230356e-09
1.043709568e-09
2.843001908e-10
1.214810422e-10
6.000719333e-11
2.876328248e-11
1.26226628e-11
4.969597722e-12
1.74074694e-12
5.409646318e-13
1.487769513e-13
3.575182666e-14
7.684708846e-15
1.421748029e-15
1.891776789e-16
0
0
0
0
0
0
0
0
0
0
0
0
0
0
0
0
0
0
0
0
0
0
0
0
0
0
0
0
0
0
0
0
0
0
0
0
0
0
0
0
5.088481804e-06
1.125419673e-07
-4.905255688e-08
-7.845060303e-08
-1.012893671e-07
8.471925226e-09
7.067352125e-09
1.168535595e-09
3.538154223e-10
1.523945248e-10
6.908025191e-11
2.92324442e-11
1.117431889e-11
3.818301788e-12
1.162503355e-12
3.152475325e-13
7.538078053e-14
1.640765445e-14
3.173358187e-15
5.091109079e-16
0
0
0
0
0
0
0
0
0
0
0
0
0
0
0
0
0
0
0
0
0
0
0
0
0
0
0
0
0
0
0
0
0
0
0
0
0
0
0
0
-4.03086269e-06
-2.193515159e-07
-2.402098233e-08
-9.795313108e-08
-1.677681817e-07
-2.574694378e-08
3.972797753e-08
4.865528919e-09
9.850853934e-10
3.601834707e-10
1.526263487e-10
6.203212221e-11
2.291784127e-11
7.595417167e-12
2.25449229e-12
6.004424203e-13
1.423678894e-13
3.12787461e-14
6.252861138e-15
1.098583524e-15
1.26467313e-16
0
0
0
0
0
0
0
0
0
0
0
0
0
0
0
0
0
0
0
0
0
0
0
0
0
0
0
0
0
0
0
0
0
0
0
0
0
0
0
-1.688780407e-06
4.109046295e-06
-1.785070056e-08
-1.120667335e-07
-2.234199587e-07
-1.820824584e-07
9.788062707e-08
1.692383593e-08
2.519797587e-09
8.015721213e-10
3.128136921e-10
1.199604859e-10
4.224418901e-11
1.343566165e-11
3.870903671e-12
1.013740553e-12
2.39871209e-13
5.363513336e-14
1.114041865e-14
2.10509572e-15
3.224163972e-16
0
0
0
0
0
0
0
0
0
0
0
0
0
0
0
0
0
0
0
0
0
0
0
0
0
0
0
0
0
0
0
0
0
0
0
0
0
0
0
-6.103391056e-05
-2.598965429e-06
6.879436268e-09
-1.284723677e-07
-2.854761061e-07
-3.820263209e-07
6.411009268e-08
6.862320889e-08
9.415079929e-09
2.135054276e-09
6.794123853e-10
2.301693522e-10
7.422448468e-11
2.213720341e-11
6.092885098e-12
1.557320749e-12
3.675839504e-13
8.415980997e-14
1.824563294e-14
3.690192366e-15
6.457081625e-16
4.269887164e-17
0
0
0
0
0
0
0
0
0
0
0
0
0
0
0
0
0
0
0
0
0
0
0
0
0
0
0
0
0
0
0
0
0
0
0
0
0
0
7.085034029e-06
2.496358568e-07
-4.675239733e-08
-2.395779717e-07
-4.641515502e-07
-6.618525455e-07
-1.253800282e-07
2.238430059e-07
2.624319386e-08
5.593641012e-09
1.453793504e-09
4.149483721e-10
1.182427716e-10
3.238801313e-11
8.471499894e-12
2.127503088e-12
5.083366891e-13
1.210933747e-13
2.772546939e-14
5.941912388e-15
1.143009431e-15
1.533994867e-16
0
0
0
0
0
0
0
0
0
0
0
0
0
0
0
0
0
0
0
0
0
0
0
0
0
0
0
0
0
0
0
0
0
0
0
0
0
0
-1.385734835e-06
-8.850482993e-07
6.950779435e-06
-4.457034285e-07
-7.391234319e-07
-1.145992675e-06
-5.444684242e-07
4.322320692e-07
1.028494399e-07
1.580637598e-08
3.110082989e-09
7.302526027e-10
1.798889143e-10
4.424835726e-11
1.085201911e-11
2.675047486e-12
6.513505991e-13
1.620863379e-13
3.907574844e-14
8.820960391e-15
1.814857338e-15
2.979420484e-16
0
0
0
0
0
0
0
0
0
0
0
0
0
0
0
0
0
0
0
0
0
0
0
0
0
0
0
0
0
0
0
0
0
0
0
0
0
0
-1.945464639e-06
-9.657006631e-07
-4.424642763e-07
-3.170338056e-07
-1.171325726e-06
-1.970141324e-06
-1.109292724e-06
5.744275569e-07
2.728012427e-07
4.721712882e-08
7.044129354e-09
1.238649677e-09
2.484618575e-10
5.370336999e-11
1.239276362e-11
3.046299269e-12
7.665851358e-13
1.998021304e-13
5.02762862e-14
1.186834853e-14
2.570535469e-15
4.654738916e-16
0
0
0
0
0
0
0
0
0
0
0
0
0
0
0
0
0
0
0
0
0
0
0
0
0
0
0
0
0
0
0
0
0
0
0
0
0
0
-8.538000208e-06
6.077308957e-05
3.10390212e-06
-3.129345656e-07
-2.157953847e-06
-3.532408751e-06
-1.769817674e-06
6.778190158e-07
5.780255056e-07
1.290555879e-07
1.616810502e-08
2.015766088e-09
3.064077289e-10
5.691876231e-11
1.261260538e-11
3.187702371e-12
8.417227548e-13
2.28403913e-13
5.944194627e-14
1.466609035e-14
3.299077529e-15
6.306216387e-16
4.950420235e-17
0
0
0
0
0
0
0
0
0
0
0
0
0
0
0
0
0
0
0
0
0
0
0
0
0
0
0
0
0
0
0
0
0
0
0
0
0
1.533607153e-05
1.024320566e-05
1.00477459e-06
-1.337788852e-06
-5.8446978e-06
-5.897302146e-06
-2.078514244e-06
7.605839765e-07
1.094407247e-06
2.927579001e-07
3.351282179e-08
2.95129631e-09
3.319287159e-10
5.507909477e-11
1.242972267e-11
3.309430529e-12
8.99855744e-13
2.555959255e-13
6.913003233e-14
1.737498779e-14
3.968677061e-15
7.793465914e-16
8.581481835e-17
0
0
0
0
0
0
0
0
0
0
0
0
0
0
0
0
0
0
0
0
0
0
0
0
0
0
0
0
0
0
0
0
0
0
0
0
0
-2.190651348e-05
2.838999333e-07
3.60810048e-07
-8.108458947e-06
-9.771957072e-06
-6.991071992e-06
-1.454748172e-06
1.257114872e-06
1.23323631e-06
4.33403116e-07
5.616994453e-08
3.891286331e-09
3.399462771e-10
5.497991502e-11
1.364324886e-11
3.805311422e-12
1.077693962e-12
3.046902834e-13
8.18707142e-14
2.047882434e-14
4.673830053e-15
9.282270628e-16
1.18697834e-16
0
0
0
0
0
0
0
0
0
0
0
0
0
0
0
0
0
0
0
0
0
0
0
0
0
0
0
0
0
0
0
0
0
0
0
0
0
0.0001419298146
4.314443166e-05
1.398885747e-05
-1.834952639e-05
-1.510782329e-05
-6.36860808e-06
-2.724590767e-07
1.48135738e-06
1.111512049e-06
4.005437728e-07
7.693766167e-08
7.043301484e-09
6.607676928e-10
9.763503721e-11
2.06529086e-11
5.275019708e-12
1.422069841e-12
3.899268448e-13
1.027511812e-13
2.53666595e-14
5.745355834e-15
1.146969638e-15
1.651145722e-16
0
0
0
0
0
0
0
0
0
0
0
0
0
0
0
0
0
0
0
0
0
0
0
0
0
0
0
0
0
0
0
0
0
0
0
0
0
0.0003676323258
-0.0002843378488
-5.983981851e-05
-2.452640849e-05
-1.212628449e-05
-3.393989899e-06
5.792610353e-07
1.389510675e-06
9.889807955e-07
4.692772847e-07
1.451885464e-07
2.325545266e-08
2.25917042e-09
2.537625135e-10
4.064805747e-11
8.674325139e-12
2.133630622e-12
5.560739854e-13
1.423703299e-13
3.454800317e-14
7.751728965e-15
1.555047538e-15
2.459290804e-16
0
0
0
0
0
0
0
0
0
0
0
0
0
0
0
0
0
0
0
0
0
0
0
0
0
0
0
0
0
0
0
0
0
0
0
0
0
2.78673394e-05
-6.774850795e-05
-3.132071896e-05
-1.595766849e-05
-6.655581693e-06
-9.161478722e-07
1.30852208e-06
1.498703269e-06
1.021889555e-06
5.348834489e-07
2.19686525e-07
6.177816694e-08
9.424196537e-09
9.872674728e-10
1.186629793e-10
1.892097773e-11
3.86275268e-12
9.140268382e-13
2.226091388e-13
5.263826747e-14
1.166884271e-14
2.349913845e-15
3.960206291e-16
0
0
0
0
0
0
0
0
0
0
0
0
0
0
0
0
0
0
0
0
0
0
0
0
0
0
0
0
0
0
0
0
0
0
0
0
0
-1.384386496e-05
-1.893857773e-05
-1.181938584e-05
-5.761462416e-06
-8.91870912e-07
1.648551111e-06
2.217753412e-06
1.813762863e-06
1.176034685e-06
6.474597612e-07
3.077771819e-07
1.21375546e-07
3.381018657e-08
5.24781854e-09
5.513477551e-10
6.268039984e-11
9.234766287e-12
1.773964087e-12
3.904461034e-13
8.789531614e-14
1.904656268e-14
3.823657684e-15
6.662802282e-16
5.154647615e-17
0
0
0
0
0
0
0
0
0
0
0
0
0
0
0
0
0
0
0
0
0
0
0
0
0
0
0
0
0
0
0
0
0
0
0
0
2.169379904e-06
-1.026756465e-06
1.335234212e-09
2.080506272e-06
3.507950725e-06
3.759250345e-06
3.170993038e-06
2.275883426e-06
1.442831437e-06
8.237890213e-07
4.259507063e-07
1.969591434e-07
7.710579502e-08
2.166705055e-08
3.380764316e-09
3.300135797e-10
3.287537359e-11
4.380567987e-12
7.724487767e-13
1.570651948e-13
3.256062769e-14
6.442269996e-15
1.147121129e-15
1.436060859e-16
0
0
0
0
0
0
0
0
0
0
0
0
0
0
0
0
0
0
0
0
0
0
0
0
0
0
0
0
0
0
0
0
0
0
0
0
1.013638331e-05
7.915887156e-06
7.360922498e-06
7.143634544e-06
6.538580299e-06
5.407486836e-06
4.05656156e-06
2.782231925e-06
1.760800112e-06
1.035538872e-06
5.665821734e-07
2.857027017e-07
1.294162667e-07
4.967375985e-08
1.37133961e-08
2.066951936e-09
1.799989973e-10
1.57910539e-11
1.905915494e-12
3.094609268e-13
5.817867717e-14
1.110774651e-14
1.986448695e-15
2.872819806e-16
0
0
0
0
0
0
0
0
0
0
0
0
0
0
0
0
0
0
0
0
0
0
0
0
0
0
0
0
0
0
0
0
0
0
0
0
1.571713536e-05
1.38133141e-05
1.216065792e-05
1.026648483e-05
8.387507005e-06
6.488150662e-06
4.691335991e-06
3.182303689e-06
2.034052302e-06
1.22942121e-06
7.022324121e-07
3.76051316e-07
1.853360712e-07
8.135560696e-08
3.000120118e-08
7.870472956e-09
1.097740629e-09
8.492244468e-11
6.665415474e-12
7.412389423e-13
1.11570573e-13
1.937431944e-14
3.374151703e-15
5.107406639e-16
3.17019681e-18
0
0
0
0
0
0
0
0
0
0
0
0
0
0
0
0
0
0
0
0
0
0
0
0
0
0
0
0
0
0
0
0
0
0
0
1.8802527e-05
1.656336014e-05
1.420177059e-05
1.174115871e-05
9.254385179e-06
6.924677784e-06
4.932083778e-06
3.371556017e-06
2.196374882e-06
1.365080506e-06
8.085234854e-07
4.532464555e-07
2.371076116e-07
1.131069997e-07
4.747397695e-08
1.64918086e-08
3.978243681e-09
4.906509246e-10
3.32587732e-11
2.387801119e-12
2.487437789e-13
3.494886539e-14
5.572765091e-15
8.361320291e-16
7.294123335e-17
0
0
0
0
0
0
0
0
0
0
0
0
0
0
0
0
0
0
0
0
0
0
0
0
0
0
0
0
0
0
0
0
0
0
0
1.929676583e-05
1.682040866e-05
1.421276799e-05
1.158297778e-05
9.073127818e-06
6.794915453e-06
4.860518114e-06
3.33706826e-06
2.216844264e-06
1.412930947e-06
8.630720747e-07
5.020100162e-07
2.74788707e-07
1.391059967e-07
6.350102643e-08
2.515268575e-08
8.07471898e-09
1.73242036e-09
1.804734676e-10
1.058665241e-11
7.022803549e-13
6.903784167e-14
9.040579308e-15
1.262748362e-15
1.374670434e-16
0
0
0
0
0
0
0
0
0
0
0
0
0
0
0
0
0
0
0
0
0
0
0
0
0
0
0
0
0
0
0
0
0
0
0
1.779119027e-05
1.534600512e-05
1.283733214e-05
1.038810118e-05
8.119114793e-06
6.125655503e-06
4.455217327e-06
3.121213846e-06
2.111412696e-06
1.371340749e-06
8.628021868e-07
5.176714114e-07
2.935902328e-07
1.553270033e-07
7.522938663e-08
3.24425884e-08
1.193106019e-08
3.455650458e-09
6.337504781e-10
5.351259888e-11
2.748106995e-12
1.718108486e-13
1.603040554e-14
1.880555469e-15
2.101054298e-16
0
0
0
0
0
0
0
0
0
0
0
0
0
0
0
0
0
0
0
0
0
0
0
0
0
0
0
0
0
0
0
0
0
0
0
1.511973836e-05
1.296509359e-05
1.080398018e-05
8.740715178e-06
6.861835107e-06
5.226157852e-06
3.860892401e-06
2.76332417e-06
1.912019745e-06
1.276291014e-06
8.170671421e-07
5.028131895e-07
2.931345096e-07
1.602840894e-07
8.100834859e-08
3.705703398e-08
1.486822641e-08
4.983304986e-09
1.271591689e-09
1.93545352e-10
1.318740787e-11
6.199536293e-13
3.764486478e-14
3.255974828e-15
3.322105873e-16
0
0
0
0
0
0
0
0
0
0
0
0
0
0
0
0
0
0
0
0
0
0
0
0
0
0
0
0
0
0
0
0
0
0
0
1.213172891e-05
1.039683863e-05
8.679215923e-06
7.055943125e-06
5.585355122e-06
4.303865002e-06
3.226313167e-06
2.34971784e-06
1.658066359e-06
1.129375947e-06
7.397400009e-07
4.625856425e-07
2.754870786e-07
1.543635269e-07
8.047941993e-08
3.840292332e-08
1.63754571e-08
6.020973831e-09
1.807456922e-09
3.967469149e-10
4.909342797e-11
2.73872005e-12
1.195319921e-13
6.922733816e-15
5.598434634e-16
0
0
0
0
0
0
0
0
0
0
0
0
0
0
0
0
0
0
0
0
0
0
0
0
0
0
0
0
0
0
0
0
0
0
0
9.372849179e-06
8.05921215e-06
6.762405226e-06
5.537085751e-06
4.423221697e-06
3.445359833e-06
2.614100105e-06
1.928765437e-06
1.380536397e-06
9.548502399e-07
6.350915106e-07
4.043076685e-07
2.444927782e-07
1.395024204e-07
7.437791389e-08
3.657536294e-08
1.627723487e-08
6.38043043e-09
2.116564153e-09
5.593171362e-10
1.029717687e-10
9.994430374e-12
4.511991429e-13
1.782834417e-14
1.017199604e-15
1.107091695e-17
0
0
0
0
0
0
0
0
0
0
0
0
0
0
0
0
0
0
0
0
0
0
0
0
0
0
0
0
0
0
0
0
0
0
7.046755221e-06
6.088493183e-06
5.138660111e-06
4.236262933e-06
3.409818636e-06
2.677642778e-06
2.048777066e-06
1.524670374e-06
1.100902312e-06
7.689102428e-07
5.171782415e-07
3.331570256e-07
2.043922375e-07
1.18443012e-07
6.420790075e-08
3.228042469e-08
1.4822816e-08
6.085800832e-09
2.167932235e-09
6.409574765e-10
1.466377481e-10
2.21600516e-11
1.666239438e-12
6.040357464e-14
2.312424288e-15
7.311723391e-17
0
0
0
0
0
0
0
0
0
0
0