/*--------------------------------*- C++ -*----------------------------------*\
  =========                 |
  \\      /  F ield         | OpenFOAM: The Open Source CFD Toolbox
   \\    /   O peration     | Website:  https://openfoam.org
    \\  /    A nd           | Version:  10
     \\/     M anipulation  |
\*---------------------------------------------------------------------------*/
FoamFile
{
    format      ascii;
    class       volScalarField;
    location    "0.02498436188";
    object      ddt0(rho,HCO);
}
// * * * * * * * * * * * * * * * * * * * * * * * * * * * * * * * * * * * * * //

dimensions      [1 -3 -1 0 0 0 0];

internalField   nonuniform List<scalar> 
5170
(
5.939841335e-41
5.940304228e-41
5.9406802e-41
5.941889813e-41
-3.202325004e-12
5.988794017e-41
5.989358112e-41
5.99016928e-41
5.991661391e-41
5.995334378e-41
5.98907164e-41
5.989729491e-41
5.990871559e-41
5.992439623e-41
5.996054893e-41
5.98897339e-41
5.989765724e-41
5.991137414e-41
5.992681689e-41
5.996347179e-41
5.988940365e-41
5.989866762e-41
5.991385695e-41
5.992862781e-41
5.996631578e-41
5.988913307e-41
5.989960472e-41
5.991570433e-41
5.99298429e-41
5.996895629e-41
5.988946535e-41
5.990077785e-41
5.991717559e-41
5.993072938e-41
5.997142761e-41
5.98896383e-41
5.990156212e-41
5.991795284e-41
5.993122889e-41
5.997379083e-41
5.989250738e-41
5.990303482e-41
5.991864227e-41
5.995057457e-41
6.848143722e-41
1.584272328e-40
8.765297739e-41
6.580692854e-41
1.459117357e-39
6.203822495e-37
4.561995559e-36
1.494478149e-36
3.97747097e-37
1.028711696e-34
4.526001601e-32
2.189874125e-31
8.459525923e-32
2.799550529e-32
7.397499051e-30
3.308416645e-27
1.09159564e-26
5.029070546e-27
2.047386087e-27
5.095261015e-25
2.425806542e-22
5.647728948e-22
3.130314093e-22
1.564345146e-22
3.256988914e-20
1.78579936e-17
3.034009651e-17
2.038415799e-17
1.260698309e-17
1.810996664e-15
1.320015967e-12
1.690684183e-12
1.382951828e-12
1.079217831e-12
7.425129492e-11
1.225816138e-10
1.881398107e-10
1.846875609e-10
1.769722123e-10
1.498861843e-10
-4.179749403e-11
-2.231601041e-11
-2.736212984e-11
-2.938492242e-11
-3.055141551e-11
-2.176789415e-11
7.604105006e-12
3.240791525e-12
-1.063921492e-12
-5.464040347e-11
-3.594201419e-10
4.648252039e-12
-1.033446003e-10
-7.692014145e-10
3.926786922e-10
6.843107278e-10
-3.007362586e-10
9.045510922e-10
-2.277070407e-09
3.006208298e-11
7.601116758e-10
-9.769206577e-10
7.311590116e-10
1.125686021e-09
9.343641497e-10
-4.160532712e-09
-1.206021755e-09
4.094102629e-10
-2.497166575e-10
-2.131904356e-10
1.253725799e-09
-1.087112364e-10
-6.879960344e-11
4.808781733e-10
-6.23901754e-10
-2.841321631e-11
2.851982065e-10
1.603532253e-11
2.44393568e-10
-1.666260701e-10
-2.444572697e-10
1.384522621e-10
4.133261145e-11
8.102528692e-12
-1.051865577e-10
-2.30835784e-11
-1.067496015e-10
1.408699138e-11
8.162200498e-11
1.144842813e-09
-5.747156027e-08
-2.625326672e-09
8.916110366e-11
5.962231703e-10
-7.424606608e-10
-1.430596983e-08
9.771874417e-08
-7.373956176e-10
-3.734374991e-09
-7.24487538e-08
1.351978694e-07
1.004851691e-07
-1.879149153e-07
-5.778144574e-08
-6.657488926e-08
3.457016756e-09
1.054385164e-08
-6.505635643e-08
-5.483352917e-08
-6.051867503e-09
8.930196215e-09
-7.750449512e-10
2.944339401e-08
2.832503035e-08
9.798294037e-09
8.626716659e-09
9.70352467e-09
9.829424288e-10
5.291436751e-09
-2.46883199e-10
3.995558129e-09
7.85123837e-09
1.879163835e-09
-2.163938482e-09
9.40416368e-09
1.539559606e-09
3.836469305e-09
9.141075838e-09
1.018647551e-08
3.548240102e-09
8.974910609e-09
6.79420976e-09
3.317176351e-09
3.859063353e-09
5.402498889e-09
1.698145597e-08
1.098338872e-08
4.432785172e-11
-3.001171346e-10
1.194297682e-08
-4.733118713e-08
1.740015401e-08
1.059312372e-08
1.038178271e-08
1.715278643e-08
-2.357378051e-07
-5.187457258e-08
1.330474635e-08
1.560920157e-08
-5.306306847e-08
-2.37526697e-07
-5.665647062e-07
-7.951499468e-08
-1.720363002e-08
2.647635658e-08
-2.477899896e-09
-1.382130757e-09
-4.269250878e-10
9.050071987e-10
2.068490908e-08
-1.381740823e-06
9.320500224e-11
1.799838144e-10
3.366389127e-10
2.748768495e-08
4.629885328e-07
-2.352447049e-10
-2.939534572e-10
-1.055292216e-08
3.07424983e-09
7.91557925e-08
1.763138478e-10
-7.078307858e-11
-2.067225892e-09
1.300312324e-08
1.20693567e-07
-5.366813186e-11
2.523828979e-10
-5.031157629e-09
1.135535935e-08
3.89515252e-08
7.809384573e-11
1.50901477e-10
-1.088216396e-09
-4.288796698e-09
1.052015373e-07
1.496180955e-10
5.525926254e-11
-1.016670457e-09
-1.850731378e-08
-5.906112573e-08
9.527694073e-10
8.491735147e-09
1.857716153e-09
3.82319426e-09
-4.864341152e-08
1.063595011e-09
5.990663888e-09
1.681636744e-09
3.070145146e-08
2.102602854e-07
-1.47068094e-10
-3.623684413e-10
-2.223861786e-09
-7.038316293e-09
-4.178510446e-08
2.261959277e-10
-6.76422516e-10
-2.569644627e-09
-1.61400362e-08
-4.702227101e-08
-2.515163666e-10
-8.417749278e-10
-2.883516091e-09
-1.356599807e-08
-5.017449914e-08
-2.440872065e-10
-1.735719349e-10
-5.601827883e-10
-1.036474779e-08
-6.802328519e-08
6.837849886e-11
6.844149798e-10
4.805994933e-09
1.984405815e-08
3.352008939e-08
-8.257563032e-11
1.83234237e-09
1.000454477e-08
1.467780345e-08
-3.090635486e-07
5.268611336e-10
1.034921905e-09
7.169783889e-09
3.868535297e-08
1.406343047e-07
3.311691188e-09
-4.289446214e-09
-3.186148731e-07
1.018299026e-07
1.00859869e-06
2.627848468e-09
2.106110012e-08
-5.776729809e-08
4.624018547e-07
5.015698647e-06
2.423452113e-07
2.990419851e-09
-3.199083264e-07
-1.971604687e-06
-4.004439832e-06
-1.514119472e-08
-2.733278593e-08
2.940279816e-09
5.137583481e-08
1.061519898e-06
-2.063776394e-08
-9.853719937e-09
5.701022373e-08
3.259463602e-07
1.312844603e-06
3.59795834e-08
6.914321985e-08
1.688756263e-07
4.076511239e-07
9.580044703e-07
1.437838229e-07
1.823359646e-07
2.564223138e-07
4.014748198e-07
6.546490773e-07
1.092684245e-07
1.709151629e-07
2.549775674e-07
2.669713466e-07
3.350784625e-07
7.979441741e-08
8.086983878e-08
8.611923721e-08
1.199667052e-07
1.138418326e-07
3.064077525e-08
3.175618832e-08
3.272666787e-08
2.729288604e-08
3.291615478e-08
9.652401573e-09
9.806199642e-09
1.027331178e-08
1.002819717e-08
1.002832868e-08
3.371066427e-09
3.327475272e-09
3.30708777e-09
3.201493474e-09
3.218131282e-09
1.221404445e-09
1.209170719e-09
1.232350202e-09
1.13887393e-09
9.287444835e-10
4.494662536e-10
4.569587025e-10
4.660138574e-10
4.464056143e-10
4.020653541e-10
3.35821221e-11
3.249212179e-11
8.875932516e-11
2.682666256e-10
1.280854636e-10
3.468112571e-11
3.51584037e-11
3.551388037e-11
4.305685413e-11
4.130953949e-11
1.490508162e-11
1.317833774e-11
4.314625892e-12
2.546689369e-12
3.655330362e-12
3.421916202e-12
3.331235235e-12
2.989238316e-12
2.654364552e-12
2.235569353e-12
-2.052610313e-12
-2.130823287e-12
-1.364791235e-12
-1.504308383e-12
-1.943859096e-12
-4.134284352e-12
-4.215459398e-12
-4.353719069e-12
-4.562143344e-12
-4.613916929e-12
-1.76226075e-12
-1.819414487e-12
-2.031542864e-12
-2.207076873e-12
-2.354171341e-12
2.451303277e-13
1.990454983e-13
9.003791003e-14
-1.567134484e-13
-4.109209978e-13
1.29025797e-12
1.245401989e-12
1.198912364e-12
1.638516318e-12
1.680155998e-12
2.773295623e-12
3.098894027e-12
2.845192856e-12
1.812722988e-12
1.975604436e-12
4.880878565e-12
4.948241618e-12
5.089342776e-12
5.266099559e-12
5.416320916e-12
3.513427205e-12
3.62588086e-12
3.866369405e-12
4.232788103e-12
2.858637616e-12
-8.211876974e-12
1.680138385e-12
2.75014868e-12
3.054370444e-12
-9.657539481e-13
2.687806345e-12
2.808443551e-12
2.897752365e-12
2.990229877e-12
2.942233824e-12
3.566597368e-12
2.529207286e-12
2.431816822e-12
1.479761429e-12
2.572852373e-13
-7.602120702e-12
-7.86385785e-12
-8.047844537e-12
-7.733940301e-12
-5.702891351e-12
-2.421615603e-12
-2.216966984e-12
-1.980802224e-12
-3.49798021e-12
-3.129240289e-12
8.585089949e-13
6.028185977e-13
-1.112593793e-12
-1.202317227e-12
-9.022667592e-13
-4.264731562e-13
-4.524989972e-13
-4.919491748e-13
-4.949181385e-13
-3.328671816e-13
-2.180421208e-13
-2.359446053e-13
-2.95200239e-13
-3.38701084e-13
-1.316844992e-13
5.159737349e-12
1.344334971e-12
-7.914944822e-12
-4.818782433e-12
1.193161762e-11
9.387551949e-12
9.79306972e-12
1.204162347e-12
1.596532594e-12
1.573824356e-12
1.511983871e-12
1.586215902e-12
1.648389443e-12
1.700455553e-12
1.622771459e-12
1.499345832e-12
1.498116838e-12
1.466724246e-12
1.392481674e-12
1.179976905e-12
-7.367448889e-13
-7.019233672e-13
-6.149419097e-13
-5.445386819e-13
-5.202090249e-13
-1.713165125e-12
-1.691310825e-12
-1.644389142e-12
-1.550181042e-12
-1.574621926e-12
-1.042599349e-12
-1.006901647e-12
-9.331703085e-13
-8.340483108e-13
-7.599825616e-13
-1.415851041e-12
-1.376988523e-12
-1.298077886e-12
-1.191827709e-12
-1.109671562e-12
-2.382443699e-12
-2.343113532e-12
-2.263661982e-12
-2.157065328e-12
-2.072985235e-12
-3.722195756e-12
-3.629905714e-12
-3.445244107e-12
-2.988399285e-12
-2.741711534e-12
-6.981152765e-12
-6.959370955e-12
-6.875218934e-12
-6.733062578e-12
-6.354596426e-12
-4.339806853e-12
-4.296232713e-12
-4.182322116e-12
-3.996387808e-12
-3.805220141e-12
-3.504822428e-12
-3.4136621e-12
-3.556433011e-12
-3.508123497e-12
-1.410919777e-11
-5.940587729e-12
-5.823596747e-12
-5.707831625e-12
-5.747536434e-12
-6.397431997e-12
-8.719952433e-12
-8.543538866e-12
-8.31755701e-12
-8.196557286e-12
-8.587463076e-12
-1.255428753e-11
-1.235238414e-11
-1.209506793e-11
-1.197179354e-11
-1.242713e-11
-1.448304847e-11
-1.387238745e-11
-1.313589498e-11
-1.228571468e-11
-1.250641771e-11
-2.19367635e-11
-2.191297163e-11
-2.158359502e-11
-2.086638521e-11
-1.928809291e-11
6.425110448e-12
6.491754745e-12
6.835145351e-12
7.813294673e-12
9.066973783e-12
6.761865237e-12
6.938011132e-12
7.399259703e-12
8.300876004e-12
9.13935369e-12
-2.408290413e-05
-7.642588797e-07
1.016131895e-07
-2.623330338e-07
-3.027224278e-07
2.702336407e-07
2.407544188e-07
7.185476825e-07
9.863847147e-07
-9.90853783e-07
-9.522817583e-08
-7.116476654e-08
3.33782495e-08
-9.539979449e-08
-2.894256146e-06
2.958521093e-07
-2.053999234e-07
2.21381621e-06
-2.838087999e-06
4.922935858e-06
3.494215831e-06
1.785001441e-06
9.397547084e-07
4.113639876e-07
1.150160467e-07
3.572668744e-08
1.004300474e-08
3.174937607e-09
6.03120681e-10
3.616287589e-10
1.121361108e-10
3.718722838e-11
9.865588215e-12
2.044845606e-12
-2.032263071e-12
-4.954477071e-12
-2.533642612e-12
-6.603233148e-13
1.967444094e-12
2.974114952e-12
5.423310763e-12
-2.682295888e-12
-3.57519348e-13
2.677899518e-12
-5.337761002e-12
-4.477087545e-12
-1.606467933e-12
-5.470140852e-13
1.463724825e-14
-8.163516694e-13
9.716575443e-12
1.410170271e-12
1.393564685e-12
8.243564504e-13
-5.756498067e-13
-1.583348376e-12
-6.779443644e-13
-1.021828321e-12
-1.981976533e-12
-2.511393365e-12
-5.516155561e-12
-3.961982751e-12
-4.895929357e-11
-7.088524122e-12
-8.838901937e-12
-1.277206797e-11
-1.09979069e-11
-1.458584081e-11
6.724142328e-12
6.198994929e-12
-1.506847473e-06
-1.955850586e-07
-2.517322313e-09
-1.015353588e-08
-1.844665424e-10
-2.781587798e-07
-1.182480443e-05
8.57622236e-08
-7.116677915e-09
1.046040425e-09
7.821235196e-08
-4.192782508e-07
2.902326712e-06
1.981519132e-08
1.067146075e-07
-7.220812718e-06
-9.245466103e-05
1.862587572e-05
-9.075693981e-09
1.781478261e-07
-1.609688814e-07
5.443831015e-06
0.0003084396255
1.3702981e-06
-2.310079594e-07
1.768977771e-07
-1.254415283e-05
-1.075713188e-05
-3.786976347e-06
1.52079468e-07
-1.111082839e-07
-2.718288005e-05
-0.0001090244789
-2.271197991e-05
2.147780915e-07
2.212897063e-07
1.536317697e-05
0.0002700198834
8.185460226e-05
8.243653706e-06
2.736807685e-06
3.144830098e-07
-5.339215513e-05
-7.109301496e-05
-5.778081708e-05
-1.928364336e-06
-6.145349609e-06
-3.949294946e-05
-0.0001304238808
-7.754633306e-06
-4.352030356e-07
-1.9108303e-06
3.406131478e-05
0.0004601198264
-5.533401803e-07
1.874146585e-07
1.281820499e-06
1.008475074e-06
-0.000326178157
0.0004606980681
1.34464436e-06
3.254196718e-05
4.424826764e-06
-1.037407591e-06
-3.702862273e-06
-7.510423421e-07
-6.08881835e-06
3.938658493e-07
4.10151892e-07
-1.664943524e-06
-3.720002184e-07
-7.048515893e-06
1.206461245e-07
-2.316738943e-07
-0.0001157581661
1.144545427e-06
-6.715501465e-06
2.027143383e-05
1.957925622e-06
-0.0003256416794
-2.100800928e-06
-1.075705549e-05
-2.046808468e-05
-1.441789208e-05
-0.0003721861551
-1.254468043e-06
-6.555134999e-06
-2.296014662e-05
-6.210140685e-05
-0.0001215002339
-4.423156251e-06
-1.729655618e-05
-6.148424557e-05
-0.0001812589034
-0.0004304732097
1.655834269e-05
0.0001109641385
0.0006066377613
0.002845902584
0.01211888436
8.779698603e-06
4.127485888e-05
0.000173526649
0.0006239095466
0.00155948678
3.410263503e-06
1.016709373e-05
2.911057466e-05
8.070561543e-05
0.000172475756
1.449062649e-06
2.918313068e-06
5.436527844e-06
9.428045013e-06
1.439643391e-05
5.380239699e-07
7.967301993e-07
1.083404763e-06
1.313320862e-06
1.373516195e-06
1.952179016e-07
1.870564794e-07
2.07839374e-07
2.095176443e-07
1.802162031e-07
3.792166736e-08
4.02968607e-08
3.917550435e-08
3.519976111e-08
2.822471088e-08
1.051299516e-08
1.10027537e-08
8.234695813e-09
7.509844662e-09
5.529652192e-09
3.060658314e-09
3.000728665e-09
3.336496136e-09
2.410902933e-09
1.556502585e-09
-6.1272587e-10
7.697807609e-10
8.87691441e-10
5.904116927e-10
4.044546369e-10
2.721279075e-10
2.025377014e-10
2.554916005e-10
2.139861552e-10
1.914602315e-10
1.115526422e-10
8.450967876e-11
4.830235243e-11
6.346767868e-11
4.985747614e-11
2.717741416e-11
4.240848766e-11
3.76442751e-11
4.716013475e-11
3.08525465e-12
1.099754535e-11
1.010218326e-11
8.883088041e-12
6.256097694e-12
3.832772649e-12
1.61747313e-12
1.192387992e-12
-6.633643664e-13
-2.055150378e-12
-2.873804641e-12
-2.449677765e-12
-3.203266894e-12
-4.609657214e-12
-7.32703011e-12
-5.819323585e-12
-6.489300824e-12
-2.746480825e-12
-3.232236322e-12
-7.424985021e-12
-8.648078118e-12
-2.844968702e-12
-3.761820877e-12
-2.426353544e-12
-5.627392413e-12
-1.432541154e-11
-1.201994368e-12
-2.092309488e-12
1.017987577e-12
1.314486871e-13
-1.120804028e-11
7.596919127e-13
3.67302065e-12
4.002061829e-12
3.176195012e-12
-7.421948015e-12
5.445375832e-12
5.810064955e-12
5.259265647e-12
-5.581787776e-12
-7.556643078e-12
6.031398463e-12
5.797603065e-12
-3.590630311e-12
1.028861456e-12
7.236061103e-12
-5.86086456e-12
4.154913054e-12
3.880763506e-13
5.577395993e-12
5.475392308e-12
3.932265831e-12
3.682462845e-12
4.080025386e-12
4.482974761e-12
-4.061352177e-12
3.447712302e-12
3.956334664e-12
-1.784904399e-12
-5.244151588e-12
-7.454285079e-12
-6.402645975e-12
-5.450361264e-12
-9.107080802e-12
-6.410897569e-12
2.396492461e-12
-1.220891584e-11
8.167711751e-12
-3.417368082e-12
-4.35168446e-12
1.307710583e-12
2.113165422e-12
2.573330164e-11
-3.839840441e-12
-1.211486644e-12
-8.524817083e-13
-1.04954498e-12
-1.173715694e-12
-7.392773872e-13
-5.665469559e-13
-1.779886731e-13
-4.71520316e-13
-4.692467252e-13
-3.284275285e-13
-2.096054562e-13
-1.180676587e-11
-1.438589546e-12
-9.858460326e-12
7.844204149e-12
1.354130595e-11
3.772310524e-13
9.136339807e-12
7.410816675e-13
1.034140359e-11
8.052881683e-13
1.589946072e-12
1.89066617e-12
2.01847801e-12
1.907512692e-12
2.01220079e-12
2.0294872e-12
1.882619577e-12
1.945253511e-12
1.896208375e-12
1.741181767e-12
7.050535422e-13
1.168333749e-12
2.551518119e-13
2.586968187e-13
2.710829651e-13
-5.406433601e-13
-3.954180588e-13
-1.09037543e-12
-1.03378939e-12
-9.082061335e-13
2.533071412e-14
-1.452270627e-12
-3.522672272e-13
-1.979342715e-14
1.669315646e-13
2.792925029e-13
-4.81369794e-13
-2.425927882e-13
-3.244970545e-14
1.461397949e-13
2.53954412e-13
-8.057600011e-13
-5.550881329e-13
-3.2687977e-13
-1.298918937e-13
3.7070079e-14
-1.745022669e-12
-1.437222665e-12
-1.047880417e-12
-3.683082395e-13
4.775567884e-13
-1.802198818e-12
-1.620728376e-12
-5.072094489e-12
-4.932341672e-12
-5.139939602e-12
-6.464821722e-12
-6.401294421e-12
-2.655926439e-12
-2.668410603e-12
-2.240010303e-12
-4.066046187e-12
-3.860332608e-12
-2.742987162e-12
5.673531959e-13
-1.306719607e-12
-1.071377177e-11
-1.112650295e-11
-4.147460732e-12
-2.447526853e-12
-1.746783602e-12
-5.423209562e-12
-3.620275501e-12
-2.773652304e-12
-2.064645562e-12
-1.281999855e-12
-6.497603351e-12
-5.209188483e-12
-4.462110732e-12
-3.786531254e-12
-2.980370748e-12
-1.056039109e-11
-9.374768843e-12
-7.999875835e-12
-5.471907076e-12
-2.716209946e-12
-1.317851328e-11
-1.366704433e-11
-2.298813106e-11
-1.573590449e-11
-1.439714753e-11
-1.990006555e-11
-2.210548248e-11
1.020839404e-11
9.191003958e-12
1.003564474e-11
7.683307281e-12
6.808371639e-12
1.001579755e-11
1.20376487e-11
1.343635876e-11
4.382645467e-12
5.39100907e-12
1.532223998e-11
-1.896354798e-11
-1.618850647e-11
-1.740004893e-11
-2.814080755e-11
3.264676115e-12
1.057465824e-11
1.337444189e-11
1.128299289e-11
1.107355238e-11
1.107087269e-11
1.108724992e-11
1.110247696e-11
1.111401091e-11
1.112308867e-11
1.113036392e-11
1.1130066e-11
1.110501094e-11
1.122963613e-11
1.121645953e-11
1.111612247e-11
1.11481609e-11
1.115386593e-11
1.115382341e-11
1.115290922e-11
1.115151889e-11
1.115007115e-11
1.114864606e-11
1.114735342e-11
1.114640368e-11
1.11458047e-11
1.114567652e-11
1.114603825e-11
1.114682412e-11
1.11480564e-11
1.1149669e-11
1.115147262e-11
1.115339597e-11
1.115536691e-11
1.115724123e-11
1.115892076e-11
1.116035968e-11
1.116150719e-11
1.116232507e-11
1.116280307e-11
1.116298487e-11
1.116285444e-11
1.116242016e-11
1.116172696e-11
1.116081796e-11
1.1159775e-11
1.115865644e-11
1.115749101e-11
1.115630477e-11
1.115513242e-11
1.115400718e-11
1.115291831e-11
1.115181883e-11
1.115057731e-11
1.114853089e-11
1.113948446e-11
1.109742221e-11
1.104752157e-11
-7.78473303e-11
-1.932687125e-10
-1.411829552e-12
1.01947583e-11
7.654418225e-12
9.957278008e-12
1.030979561e-11
1.032953194e-11
1.033153748e-11
1.033332535e-11
1.033544658e-11
1.03376666e-11
1.033960517e-11
1.034404738e-11
1.036856318e-11
1.021189423e-11
1.019590193e-11
1.036103469e-11
1.034111693e-11
1.033862496e-11
1.033940332e-11
1.034133149e-11
1.034401961e-11
1.034742456e-11
1.035050192e-11
1.035358291e-11
1.03560399e-11
1.035776427e-11
1.035902186e-11
1.035953845e-11
1.035969529e-11
1.035946439e-11
1.035888781e-11
1.035812869e-11
1.035759553e-11
1.035716826e-11
1.035674814e-11
1.035650278e-11
1.035644595e-11
1.03565896e-11
1.035695739e-11
1.035755539e-11
1.035829257e-11
1.035911697e-11
1.035988078e-11
1.036066218e-11
1.036133582e-11
1.036199263e-11
1.03626652e-11
1.036344665e-11
1.036435216e-11
1.036538276e-11
1.036658799e-11
1.036789565e-11
1.036926757e-11
1.037071985e-11
1.037245787e-11
1.037341084e-11
1.035800924e-11
1.034014326e-11
6.985314079e-10
-7.750366662e-10
1.13716955e-12
-1.799691615e-11
9.954486272e-12
9.418290081e-12
9.513233499e-12
9.524839616e-12
9.537299368e-12
9.552464921e-12
9.568170159e-12
9.583419745e-12
9.597629882e-12
9.61444137e-12
9.654253255e-12
9.507314187e-12
9.508296005e-12
9.659118026e-12
9.643119393e-12
9.643955434e-12
9.646571245e-12
9.649076096e-12
9.651554699e-12
9.654226475e-12
9.657067585e-12
9.659631487e-12
9.661385911e-12
9.662325478e-12
9.662383179e-12
9.661599527e-12
9.660197692e-12
9.658100503e-12
9.655648868e-12
9.653093519e-12
9.650571848e-12
9.648228546e-12
9.64620998e-12
9.644569307e-12
9.643275308e-12
9.642370447e-12
9.641880144e-12
9.641882827e-12
9.642290143e-12
9.642929085e-12
9.643701637e-12
9.644500678e-12
9.645165245e-12
9.645713993e-12
9.646163272e-12
9.646567767e-12
9.647042438e-12
9.647574277e-12
9.648176751e-12
9.648816418e-12
9.649517364e-12
9.65049109e-12
9.652561015e-12
9.657932373e-12
9.665223514e-12
9.676271462e-12
-4.04722683e-09
-2.202660508e-10
-5.336422789e-11
-7.836958558e-12
1.016758998e-11
9.274421105e-12
9.388374879e-12
9.405385723e-12
9.422368511e-12
9.445103215e-12
9.470409153e-12
9.496085766e-12
9.520727512e-12
9.549810319e-12
9.604156497e-12
9.422307396e-12
9.447311647e-12
9.613677553e-12
9.597426088e-12
9.599331476e-12
9.602999892e-12
9.606118113e-12
9.608729343e-12
9.610974347e-12
9.613014186e-12
9.614916207e-12
9.616702785e-12
9.618336297e-12
9.619805094e-12
9.621180922e-12
9.622432304e-12
9.623360958e-12
9.623846646e-12
9.623846276e-12
9.623479e-12
9.622783568e-12
9.621749765e-12
9.620550736e-12
9.619387527e-12
9.618315637e-12
9.617423901e-12
9.616755034e-12
9.616319012e-12
9.61614546e-12
9.616176391e-12
9.6162872e-12
9.616388185e-12
9.61638597e-12
9.616207717e-12
9.615831441e-12
9.615402412e-12
9.614994153e-12
9.614643488e-12
9.614360223e-12
9.614250229e-12
9.614651031e-12
9.616680434e-12
9.622699509e-12
9.631446596e-12
9.64360897e-12
-2.211965229e-08
-1.349495583e-09
1.97368888e-10
-5.698910317e-11
1.032886341e-11
9.216075094e-12
9.353898406e-12
9.398262769e-12
9.409135646e-12
9.42401489e-12
9.443191241e-12
9.465070636e-12
9.48945239e-12
9.525454548e-12
9.591938096e-12
9.363644339e-12
9.410830232e-12
9.604461086e-12
9.587054013e-12
9.589787445e-12
9.594547643e-12
9.598520729e-12
9.601813315e-12
9.604590749e-12
9.60699745e-12
9.609122661e-12
9.611036372e-12
9.612755741e-12
9.614307913e-12
9.615723377e-12
9.616979998e-12
9.618049158e-12
9.618893084e-12
9.619515089e-12
9.619969017e-12
9.620317807e-12
9.620607475e-12
9.620879578e-12
9.621175583e-12
9.621465665e-12
9.621743458e-12
9.622026288e-12
9.622291316e-12
9.622530757e-12
9.622742708e-12
9.622796789e-12
9.622644305e-12
9.622354829e-12
9.621889754e-12
9.621182257e-12
9.620335611e-12
9.619345913e-12
9.618301028e-12
9.617336563e-12
9.616598248e-12
9.616515419e-12
9.618423156e-12
9.624094713e-12
9.631434307e-12
9.642015679e-12
1.247799819e-08
-7.494692812e-09
-5.726346104e-10
-2.609510652e-10
8.81132309e-13
-4.137534171e-12
9.234313623e-12
9.389420981e-12
9.401174744e-12
9.411332727e-12
9.426641108e-12
9.445083801e-12
9.467548349e-12
9.508323219e-12
9.581749076e-12
9.297133249e-12
9.366433991e-12
9.59446038e-12
9.575937059e-12
9.580125181e-12
9.586738535e-12
9.592093396e-12
9.596413821e-12
9.599990774e-12
9.603021532e-12
9.605631031e-12
9.607903397e-12
9.609887588e-12
9.61162671e-12
9.613151739e-12
9.614474311e-12
9.615614767e-12
9.616590969e-12
9.617430852e-12
9.618162044e-12
9.618822354e-12
9.619439562e-12
9.620033277e-12
9.620626738e-12
9.621213427e-12
9.62179444e-12
9.622371842e-12
9.622938174e-12
9.623489843e-12
9.623995059e-12
9.624354156e-12
9.624568132e-12
9.624680048e-12
9.624640415e-12
9.62435131e-12
9.623801854e-12
9.622936968e-12
9.621838127e-12
9.620660947e-12
9.619649843e-12
9.619415151e-12
9.621342463e-12
9.626581585e-12
9.632726537e-12
9.642017824e-12
-3.071659282e-08
-4.739417945e-08
-4.397446609e-09
-1.573495661e-10
-1.321429996e-10
-3.821495122e-12
1.641744419e-12
9.340003216e-12
9.387687984e-12
9.397479962e-12
9.411009126e-12
9.428243758e-12
9.450589522e-12
9.497069927e-12
9.574320525e-12
9.233224796e-12
9.321271404e-12
9.582323254e-12
9.562257292e-12
9.567820147e-12
9.576806445e-12
9.584057582e-12
9.589773054e-12
9.594384947e-12
9.598206632e-12
9.601438903e-12
9.60420947e-12
9.606600823e-12
9.608675132e-12
9.610477518e-12
9.612042264e-12
9.613401791e-12
9.61458746e-12
9.615633277e-12
9.616567537e-12
9.617422177e-12
9.618221194e-12
9.618983843e-12
9.61972863e-12
9.620461511e-12
9.621187335e-12
9.621904042e-12
9.622606357e-12
9.623286124e-12
9.623927081e-12
9.624482255e-12
9.624927429e-12
9.625240083e-12
9.625394427e-12
9.625344406e-12
9.625039097e-12
9.624412639e-12
9.623506311e-12
9.622434143e-12
9.621511526e-12
9.621500616e-12
9.623678009e-12
9.628574518e-12
9.633858316e-12
9.641943489e-12
6.924100503e-07
-1.440008283e-07
-2.889314808e-08
-2.114635067e-09
-3.485470189e-10
-7.094608588e-11
-1.018760731e-12
9.180584241e-12
9.365308782e-12
9.386386868e-12
9.397894498e-12
9.413972256e-12
9.436900933e-12
9.489527196e-12
9.568526991e-12
9.17835719e-12
9.281476659e-12
9.56990698e-12
9.547815393e-12
9.55396227e-12
9.565216775e-12
9.574588588e-12
9.581991689e-12
9.587880101e-12
9.592667821e-12
9.596649744e-12
9.600021864e-12
9.602909946e-12
9.605403036e-12
9.607564781e-12
9.609445284e-12
9.611086415e-12
9.612527053e-12
9.613805024e-12
9.61495346e-12
9.616004179e-12
9.616982866e-12
9.617909901e-12
9.618803063e-12
9.619671635e-12
9.620522574e-12
9.62135468e-12
9.622163771e-12
9.622937869e-12
9.623662345e-12
9.624311031e-12
9.624863403e-12
9.625281806e-12
9.625527614e-12
9.625570093e-12
9.625378225e-12
9.624945971e-12
9.624291024e-12
9.623481438e-12
9.622845893e-12
9.62314566e-12
9.62546623e-12
9.630108331e-12
9.634868381e-12
9.641882873e-12
-4.301639285e-06
-4.234999718e-07
-1.067027746e-07
-1.180244367e-08
-7.335551224e-10
-7.386165094e-11
2.658649471e-11
9.860612796e-12
9.312875357e-12
9.37610625e-12
9.385922828e-12
9.399377762e-12
9.422725226e-12
9.481707831e-12
9.561060373e-12
9.127006011e-12
9.244440144e-12
9.557517994e-12
9.533361537e-12
9.539295111e-12
9.552370109e-12
9.563798641e-12
9.573043122e-12
9.580425351e-12
9.586371522e-12
9.591253567e-12
9.595342147e-12
9.598818495e-12
9.601806739e-12
9.604393245e-12
9.606644108e-12
9.60861188e-12
9.610343527e-12
9.61188223e-12
9.613267104e-12
9.614531488e-12
9.615703776e-12
9.616806086e-12
9.617857113e-12
9.618868173e-12
9.619848556e-12
9.620798413e-12
9.621714042e-12
9.622584177e-12
9.623395311e-12
9.624123435e-12
9.624747434e-12
9.625236682e-12
9.6255552e-12
9.625672666e-12
9.625556732e-12
9.625207038e-12
9.624644806e-12
9.624e-12
9.623642212e-12
9.624302409e-12
9.626896619e-12
9.631477429e-12
9.635886633e-12
9.642180834e-12
8.338831426e-07
-3.354808201e-08
-3.831689061e-07
-5.02374537e-08
-3.461455776e-09
-1.428996438e-11
-7.071934325e-11
3.212334931e-12
9.23381611e-12
9.350255158e-12
9.37074442e-12
9.382327013e-12
9.406341407e-12
9.472074045e-12
9.550139615e-12
9.074138618e-12
9.20589488e-12
9.544647522e-12
9.518744939e-12
9.523999699e-12
9.538575207e-12
9.551947933e-12
9.563122055e-12
9.572191342e-12
9.579493892e-12
9.585429927e-12
9.590341017e-12
9.594475892e-12
9.598007296e-12
9.601055601e-12
9.603705528e-12
9.606024655e-12
9.608066957e-12
9.609884846e-12
9.611520869e-12
9.613010149e-12
9.61438383e-12
9.615665929e-12
9.616880792e-12
9.618040793e-12
9.619156957e-12
9.620229394e-12
9.621255789e-12
9.622228411e-12
9.623134638e-12
9.623950602e-12
9.624651088e-12
9.625206056e-12
9.625587139e-12
9.625773366e-12
9.62574078e-12
9.625479702e-12
9.625025681e-12
9.624551264e-12
9.624470623e-12
9.625481795e-12
9.628325503e-12
9.632817772e-12
9.636921294e-12
9.64249475e-12
3.238195592e-07
-1.274784193e-05
-5.439271023e-07
-1.71642339e-07
-1.450503237e-08
3.172320272e-11
4.920326819e-10
5.828860878e-11
6.604501224e-12
9.270944493e-12
9.357326741e-12
9.36794049e-12
9.390831844e-12
9.462355499e-12
9.536875005e-12
9.020123065e-12
9.16583236e-12
9.53074814e-12
9.503584315e-12
9.507832049e-12
9.523682668e-12
9.53888601e-12
9.552039041e-12
9.562976062e-12
9.571871085e-12
9.579072818e-12
9.584964402e-12
9.589868285e-12
9.594018885e-12
9.597583464e-12
9.600672679e-12
9.603371911e-12
9.605744877e-12
9.607852927e-12
9.609738318e-12
9.611449834e-12
9.613027226e-12
9.614497289e-12
9.615883018e-12
9.617198149e-12
9.618452998e-12
9.619653828e-12
9.620799037e-12
9.621877601e-12
9.622876063e-12
9.623778384e-12
9.624563929e-12
9.625204983e-12
9.625665783e-12
9.625924275e-12
9.625970036e-12
9.62579964e-12
9.625479541e-12
9.62520883e-12
9.625413028e-12
9.626747785e-12
9.629785485e-12
9.634147913e-12
9.637952239e-12
9.642361625e-12
3.393175327e-05
1.337479639e-06
-9.380415191e-07
-6.036152028e-07
-4.597355845e-08
7.949198288e-10
2.818410333e-10
-5.185272878e-11
1.657260593e-11
9.299878129e-12
9.277160072e-12
9.352283781e-12
9.379919417e-12
9.455274142e-12
9.524594608e-12
8.972223777e-12
9.129800266e-12
9.516932633e-12
9.488992581e-12
9.491902657e-12
9.508587357e-12
9.525256401e-12
9.54017651e-12
9.552948208e-12
9.563540588e-12
9.572176316e-12
9.579207779e-12
9.585000669e-12
9.589850003e-12
9.593976736e-12
9.597533806e-12
9.600631706e-12
9.603354823e-12
9.605770148e-12
9.607931944e-12
9.609891374e-12
9.611685665e-12
9.613347901e-12
9.6149036e-12
9.616376114e-12
9.617772504e-12
9.619100747e-12
9.620356928e-12
9.621538086e-12
9.622636396e-12
9.623632595e-12
9.624504515e-12
9.625228024e-12
9.625768495e-12
9.626112265e-12
9.626249586e-12
9.626186131e-12
9.626015635e-12
9.625966681e-12
9.626452107e-12
9.628073817e-12
9.631259886e-12
9.635491108e-12
9.639040173e-12
9.642730331e-12
-2.04482281e-06
-3.393245253e-07
-6.704658129e-07
-2.061770457e-06
-1.166427971e-07
4.830916612e-09
1.327537758e-09
6.847663782e-10
6.074441522e-11
9.795043541e-12
9.217443362e-12
9.342759571e-12
9.377541106e-12
9.452911178e-12
9.51665259e-12
8.937721983e-12
9.1046187e-12
9.505026039e-12
9.476662029e-12
9.478048946e-12
9.494860998e-12
9.512297997e-12
9.528413695e-12
9.542658423e-12
9.554801657e-12
9.564885525e-12
9.573146899e-12
9.57992614e-12
9.585553875e-12
9.590295898e-12
9.594351906e-12
9.597864708e-12
9.600941435e-12
9.603661777e-12
9.606094484e-12
9.608294247e-12
9.610307193e-12
9.612168389e-12
9.613902887e-12
9.615535762e-12
9.617075171e-12
9.618534586e-12
9.619912314e-12
9.62120859e-12
9.622411561e-12
9.623503495e-12
9.624466223e-12
9.625276976e-12
9.625905391e-12
9.626341941e-12
9.626576239e-12
9.626633667e-12
9.626625434e-12
9.626802601e-12
9.62756932e-12
9.629453422e-12
9.632747547e-12
9.6368535e-12
9.640206587e-12
9.64389164e-12
-1.421752335e-06
-6.146122832e-07
1.167008851e-05
-5.601133057e-06
-3.419684941e-08
5.022105075e-08
6.423105803e-09
2.697380697e-09
4.078833651e-10
1.838569114e-11
8.147494195e-12
9.213680181e-12
9.377165192e-12
9.456608634e-12
9.51585228e-12
8.922823402e-12
9.096074568e-12
9.497181765e-12
9.468462662e-12
9.468429497e-12
9.484521933e-12
9.501768397e-12
9.518188489e-12
9.533186202e-12
9.546382233e-12
9.55763412e-12
9.567019706e-12
9.574772644e-12
9.581201721e-12
9.586590456e-12
9.591169895e-12
9.595114402e-12
9.598552958e-12
9.601583315e-12
9.604286719e-12
9.606726225e-12
9.608953274e-12
9.61100647e-12
9.612915472e-12
9.614705052e-12
9.616389085e-12
9.617981168e-12
9.619482566e-12
9.620894187e-12
9.622203309e-12
9.623395514e-12
9.624453996e-12
9.625357196e-12
9.626081239e-12
9.626617178e-12
9.626954886e-12
9.627144209e-12
9.627317188e-12
9.627720578e-12
9.628751589e-12
9.630870382e-12
9.634233901e-12
9.638209245e-12
9.641341396e-12
9.644055593e-12
-2.238742118e-06
-7.351736794e-07
-1.20314655e-06