/*--------------------------------*- C++ -*----------------------------------*\
  =========                 |
  \\      /  F ield         | OpenFOAM: The Open Source CFD Toolbox
   \\    /   O peration     | Website:  https://openfoam.org
    \\  /    A nd           | Version:  10
     \\/     M anipulation  |
\*---------------------------------------------------------------------------*/
FoamFile
{
    format      ascii;
    class       volScalarField;
    location    "0.02498436188";
    object      ddt0(rho,CH2OH);
}
// * * * * * * * * * * * * * * * * * * * * * * * * * * * * * * * * * * * * * //

dimensions      [1 -3 -1 0 0 0 0];

internalField   nonuniform List<scalar> 
5170
(
6.103613947e-38
6.104089603e-38
6.104475941e-38
6.105718905e-38
6.109627188e-38
6.153916347e-38
6.154495995e-38
6.155329529e-38
6.156862779e-38
6.160637038e-38
6.154201625e-38
6.154877614e-38
6.156051171e-38
6.157662469e-38
6.161377419e-38
6.154100665e-38
6.154914845e-38
6.156324356e-38
6.157911209e-38
6.161677763e-38
6.154066729e-38
6.15501867e-38
6.156579482e-38
6.158097294e-38
6.161970004e-38
6.154038926e-38
6.155114963e-38
6.156769314e-38
6.158222153e-38
6.162241335e-38
6.15407307e-38
6.155235511e-38
6.156920496e-38
6.158313245e-38
6.162495281e-38
6.154090836e-38
6.155316099e-38
6.157000365e-38
6.158364548e-38
6.162726176e-38
6.15415923e-38
6.15541174e-38
6.157061863e-38
6.158409819e-38
6.163399548e-38
6.159535469e-38
6.156967572e-38
6.15738601e-38
6.234282871e-38
3.979561888e-37
2.534922867e-36
8.717956318e-37
2.771878235e-37
5.583601394e-35
2.453903647e-32
1.187301701e-31
4.586573113e-32
1.517860237e-32
4.010759653e-30
1.793749982e-27
5.918388974e-27
2.726650289e-27
1.110047238e-27
2.762537291e-25
1.315218398e-22
3.062073127e-22
1.697186737e-22
8.481531738e-23
1.76586701e-20
9.682207276e-18
1.644972608e-17
1.105183747e-17
6.835226066e-18
9.818821458e-16
7.156833226e-13
9.166513921e-13
7.498057482e-13
5.851279249e-13
4.025740203e-11
5.963350533e-11
6.842877776e-11
6.809195361e-11
6.706047878e-11
5.971200204e-11
3.647972192e-11
3.557797688e-11
3.513009752e-11
3.528929423e-11
3.595339394e-11
4.226370815e-11
4.434765394e-11
4.403562769e-11
4.362079026e-11
3.614299291e-11
-8.383822443e-12
4.314788393e-11
2.737124532e-11
-8.880072439e-11
-3.748482448e-11
9.332811509e-13
-1.548294118e-17
-6.571762901e-18
-4.143955116e-17
-6.82035592e-18
4.818416859e-17
-8.253035449e-18
7.300088865e-17
6.37183988e-17
6.411735193e-17
-2.420345198e-16
-9.185494842e-17
-1.304693302e-17
1.648188326e-18
3.67421359e-18
9.539985823e-17
3.121692565e-18
2.696221657e-17
5.081730536e-17
-8.207961912e-17
-2.457773758e-16
6.246901338e-14
-1.316969926e-15
2.404868511e-16
-4.086988909e-15
3.830977629e-13
-1.049989753e-11
5.044584783e-14
8.517497928e-14
-3.941992815e-13
-1.132637634e-12
-1.429569315e-11
1.013762647e-13
-7.552251936e-12
3.467720778e-10
-2.037000783e-08
-1.689060403e-09
-1.285981451e-10
-2.655327811e-11
-1.661258376e-09
2.170226625e-08
-1.890403903e-08
-1.345777887e-09
-2.695732819e-09
-2.053983266e-08
4.368028461e-08
3.347222695e-08
-5.507016697e-08
2.205985553e-08
-2.204311347e-08
2.135683324e-09
2.744526952e-09
-2.004446215e-08
-2.021414782e-08
-2.537583607e-09
8.793212868e-11
-1.685849258e-10
5.598159894e-09
1.235505182e-08
3.345071625e-09
2.13798414e-09
2.527835153e-09
3.834173666e-10
2.334325863e-09
6.087208804e-10
9.212866272e-10
1.920237506e-09
-1.40443125e-10
6.609197513e-10
2.34315127e-09
1.169289266e-10
7.543232293e-10
2.40285878e-09
2.487110102e-09
6.918461367e-10
2.278614717e-09
1.629776285e-09
6.223721791e-10
7.56754465e-10
1.23251459e-09
4.600993318e-09
2.909747543e-09
-3.747002972e-10
-4.876539233e-10
3.204464467e-09
-1.402172962e-08
4.688638632e-09
2.727737991e-09
2.657702914e-09
4.632170637e-09
-6.769326811e-08
-1.521471001e-08
3.612550053e-09
4.258506249e-09
-1.567086664e-08
-6.820094711e-08
-7.439215732e-08
-1.624399654e-08
-4.821058757e-09
6.899231237e-09
-8.00211805e-10
-1.275625712e-10
-4.292778396e-14
-8.969791168e-12
9.490303469e-11
-1.919970297e-08
1.301999395e-11
2.333614043e-11
-1.206907317e-11
1.659294615e-09
6.017566809e-08
-1.781516542e-11
5.996630738e-11
-1.075799777e-09
-1.850078972e-10
4.600771204e-09
-8.180834315e-12
-1.223928175e-11
1.969607539e-10
9.561688284e-10
2.394286759e-08
2.644116335e-12
1.391087206e-11
2.796293957e-10
-1.360931287e-10
-6.99729435e-08
-2.297622181e-12
-1.925445792e-11
-2.248804353e-10
-2.142546641e-10
6.475871945e-08
-2.86250989e-12
-2.926179315e-11
-4.750166733e-10
-8.697084545e-09
-3.433370844e-08
7.08540568e-11
1.037699479e-09
7.875833017e-10
8.744970851e-09
3.664407028e-08
3.563272331e-12
8.860043107e-10
4.183919231e-12
4.325809799e-09
3.056072034e-08
-2.967532755e-12
7.293260076e-11
-3.843643991e-10
-2.679838451e-09
-7.938468731e-09
1.682223791e-11
-4.132298363e-11
-4.333018366e-10
-3.260436757e-09
-2.070402192e-08
-1.0025268e-11
-6.705859276e-11
-3.54292416e-10
-1.772024888e-09
-7.985230241e-09
-6.165659072e-11
2.238344892e-11
1.807208434e-11
-1.507129132e-09
-1.005085414e-08
1.918955256e-11
9.389268499e-11
7.053934789e-10
3.035519976e-09
4.714312234e-09
-1.781741966e-11
2.8626249e-10
1.71425462e-09
2.315140227e-09
-6.040302644e-08
1.475979122e-11
7.349553149e-12
4.031852444e-10
3.568781927e-09
2.387370034e-08
4.22572431e-10
-6.547222062e-10
-4.170953544e-08
1.357287446e-08
1.202541155e-07
7.177867712e-11
1.644499532e-09
-9.561890375e-09
9.074299737e-08
9.627286683e-07
3.395436976e-08
4.471772066e-09
-3.986189394e-08
-2.607288751e-07
-5.276417645e-07
1.909476635e-09
3.887624565e-09
1.77619569e-08
4.854453267e-08
2.577590452e-07
2.792482839e-09
7.160780576e-09
2.329369617e-08
7.038391276e-08
2.12962569e-07
5.250068591e-09
9.405193543e-09
2.182495382e-08
5.101827619e-08
1.155726479e-07
7.250359116e-09
1.001487874e-08
1.582399459e-08
2.780064534e-08
4.983750437e-08
3.270030069e-09
6.733736168e-09
1.155340048e-08
1.242517518e-08
1.711390869e-08
2.421901455e-09
2.458225418e-09
2.704652662e-09
4.393831313e-09
4.175043014e-09
7.677156885e-10
8.114691158e-10
8.419319253e-10
5.867472285e-10
8.468562954e-10
1.737935085e-10
1.79260957e-10
1.996364716e-10
1.899966458e-10
1.947608136e-10
5.230472936e-11
5.197547452e-11
5.188511691e-11
5.047462125e-11
5.072534485e-11
1.815126843e-11
1.786394341e-11
1.833638805e-11
1.642779513e-11
1.337282317e-11
6.896237179e-12
7.002380698e-12
7.061056928e-12
6.778611864e-12
6.157447913e-12
8.339541056e-13
8.288119062e-13
1.437252315e-12
3.426099835e-12
2.087726154e-12
7.246959907e-13
7.266279167e-13
7.247178669e-13
7.88458158e-13
7.532871006e-13
2.623120551e-13
2.550744635e-13
2.167985199e-13
1.863682595e-13
1.748060559e-13
-1.37924705e-14
-1.707661346e-14
-2.464263558e-14
-3.608908618e-14
-5.064802716e-14
-1.639269831e-13
-1.680212559e-13
-1.843977336e-13
-1.980179038e-13
-2.160215254e-13
-2.822889505e-13
-2.870135734e-13
-2.974844444e-13
-3.127263512e-13
-3.2675368e-13
-2.86515224e-13
-2.969847142e-13
-3.556344567e-13
-3.764368517e-13
-3.870924274e-13
-1.448407767e-13
-1.511158892e-13
-1.712674537e-13
-2.410882921e-13
-2.713541431e-13
3.324946381e-14
2.871048725e-14
1.798492593e-14
3.452119578e-14
-5.889526546e-14
1.726969458e-13
1.299433626e-13
1.155128584e-13
2.798296898e-13
2.817224379e-13
2.750803412e-13
2.764126527e-13
2.7817863e-13
2.822832429e-13
2.915193716e-13
1.842902e-13
1.877829956e-13
1.927670444e-13
1.999467559e-13
1.888338088e-13
-8.563892991e-14
-5.699735334e-15
3.474646591e-14
4.05076751e-14
2.098468412e-13
-1.741960367e-14
-2.469567802e-14
-4.368748532e-14
-7.141807523e-14
-7.662321543e-14
-6.576326236e-14
-7.725296167e-14
-2.15047025e-14
4.207356638e-15
2.640449875e-14
-5.0070965e-14
-5.264995305e-14
-5.316736515e-14
-5.584044692e-14
-3.430546766e-14
1.247530538e-13
1.02915439e-13
-9.370079547e-14
-1.818154876e-13
2.106454206e-13
-8.857564078e-14
-7.559211498e-14
5.530967969e-15
1.729564268e-14
2.589903794e-14
-2.483391198e-14
-2.635463271e-14
-2.740192708e-14
-2.834302599e-14
-2.039366e-14
-1.653525553e-14
-3.576077445e-15
-9.112549071e-15
-1.092950711e-14
-2.260207326e-14
2.695972058e-13
7.343519823e-14
-1.874007276e-13
-2.076245422e-13
2.643425703e-13
2.878838363e-13
3.049829724e-13
-4.89473522e-14
-2.759306196e-14
-1.546154038e-14
-6.339816877e-14
-5.909659816e-14
-5.301487445e-14
-4.449181814e-14
-3.436012413e-14
-7.781409137e-14
-7.574567698e-14
-7.153499381e-14
-6.551116818e-14
-5.873704102e-14
-1.48045056e-13
-1.442995487e-13
-1.362034189e-13
-1.250240752e-13
-1.120723388e-13
-2.408361951e-13
-2.381626888e-13
-2.316268028e-13
-2.193285647e-13
-2.190121501e-13
-2.087372441e-13
-2.033565287e-13
-1.925080346e-13
-1.78020758e-13
-1.667284381e-13
-2.751509727e-13
-2.688573144e-13
-2.563119143e-13
-2.394097465e-13
-2.252402287e-13
-4.287957762e-13
-4.223783952e-13
-4.094614098e-13
-3.915787128e-13
-3.75026732e-13
-6.111524436e-13
-5.984347687e-13
-5.732818721e-13
-5.105643309e-13
-4.758825254e-13
-1.112817519e-12
-1.108331732e-12
-1.093126507e-12
-1.066879166e-12
-1.007117889e-12
-7.529837819e-13
-7.480188289e-13
-7.327591729e-13
-7.058404182e-13
-6.676387524e-13
-5.761105497e-13
-5.586307717e-13
-5.781035949e-13
-5.091985757e-13
-2.217123421e-12
-1.039710349e-12
-1.020550955e-12
-1.001221649e-12
-1.007081913e-12
-1.111326729e-12
-1.474583951e-12
-1.445598113e-12
-1.408180068e-12
-1.387380253e-12
-1.449100999e-12
-2.027913109e-12
-1.995092008e-12
-1.953658087e-12
-1.935230803e-12
-2.013009369e-12
-2.361835246e-12
-2.26539601e-12
-2.150556522e-12
-2.015623975e-12
-2.05780288e-12
-3.542942628e-12
-3.540030684e-12
-3.487572687e-12
-3.372226146e-12
-3.114382987e-12
1.28728608e-12
1.298442612e-12
1.354415722e-12
1.515193443e-12
1.710653455e-12
1.353346158e-12
1.384721228e-12
1.46573335e-12
1.621789137e-12
1.760471636e-12
-3.399565751e-06
2.096251086e-09
2.049472752e-08
3.274393302e-07
-5.746808452e-07
2.148474961e-07
1.109041255e-07
2.439734263e-07
3.839829528e-08
9.05879118e-08
-5.271939334e-08
-1.925512559e-08
1.925478019e-08
-1.961280936e-08
-5.582188375e-07
1.275275484e-07
-1.491740509e-07
3.301522059e-07
-4.474329433e-07
9.710635847e-07
5.028905721e-07
2.078314102e-07
7.579714802e-08
2.280057741e-08
4.410338439e-09
9.944657197e-10
1.985204614e-10
5.021788911e-11
6.987911944e-12
5.574132342e-12
1.915588681e-12
6.943657994e-13
1.992994745e-13
-5.665007309e-14
-2.308666541e-13
-3.318960988e-13
-3.983640982e-13
-2.669821343e-13
-1.031151715e-13
2.3462291e-13
3.010322928e-13
8.905173438e-14
1.639374254e-13
-3.371450292e-14
-3.109315056e-14
-6.066612321e-14
2.65879085e-14
2.841229755e-14
4.084927192e-16
7.439439372e-15
3.729734271e-13
-1.377733835e-14
-3.167386573e-14
-5.951697174e-14
-1.091916405e-13
-2.028361061e-13
-1.58382749e-13
-2.148826471e-13
-3.616646605e-13
-4.491835972e-13
-8.915680573e-13
-6.671658719e-13
-7.87849153e-12
-1.218261786e-12
-1.484159325e-12
-2.069736623e-12
-1.804055494e-12
-2.351691884e-12
1.277540194e-12
1.234505299e-12
-1.314846161e-07
-3.378885325e-09
-1.058867866e-09
-1.761477104e-09
-1.219706243e-10
-1.620122128e-08
-1.661644776e-06
1.142836529e-08
-2.733538655e-10
1.321608751e-11
2.99382599e-08
1.074844872e-07
2.625415849e-07
1.484319232e-09
7.977381286e-09
1.290079271e-06
-2.288689273e-05
1.706500674e-05
1.027955717e-07
2.749345469e-08
-2.314936171e-07
1.988628714e-06
4.626971717e-05
-1.436081655e-06
-5.822293757e-08
-1.285505599e-07
-1.406887304e-06
-8.865304437e-06
-1.398934863e-06
-1.456293535e-07
3.053066861e-07
-2.078794735e-06
-1.781326853e-05
-1.669375069e-06
7.643912318e-08
2.995828074e-07
3.485500598e-06
5.621478568e-05
3.222536333e-05
3.422074423e-06
-1.18570945e-07
-3.251705688e-06
-1.560910452e-05
9.314525845e-05
-1.672512811e-05
1.097732828e-08
1.58685633e-06
5.579753327e-06
-8.867418322e-05
8.71398063e-06
-8.900221489e-09
4.194316306e-07
5.921572337e-06
1.344643245e-05
2.051000664e-06
5.43268258e-08
2.633585119e-07
1.118008809e-06
-4.196581046e-05
0.0001393616561
2.779665032e-07
6.062416408e-06
8.198893153e-07
1.303149127e-06
-8.847758757e-06
-1.323520606e-07
-1.110670151e-06
9.53420343e-08
5.30827325e-07
1.147874356e-06
-5.967060553e-08
-1.21802819e-06
8.100230581e-08
2.815055462e-07
3.387176803e-05
5.867473627e-07
-1.151166963e-06
9.490715792e-06
1.058621896e-06
3.628712722e-05
-7.685513324e-07
-2.40320289e-06
-1.007183037e-05
-7.223543187e-07
4.849395203e-06
-2.836785217e-07
-1.321766708e-06
-5.452623999e-06
-2.01628226e-05
-7.772712713e-05
-8.38962981e-07
-3.387792806e-06
-1.404309613e-05
-4.492333174e-05
-0.0001280649559
3.184104257e-06
2.29036684e-05
0.0001409747718
0.0007687860258
0.003050541503
1.204244115e-06
5.912036611e-06
2.785300188e-05
0.0001164822383
0.0003275314058
3.838385214e-07
1.142351189e-06
3.567465544e-06
1.149695205e-05
2.737621427e-05
1.232222557e-07
2.601038383e-07
5.150080716e-07
1.026214252e-06
1.794937081e-06
3.307438141e-08
5.56060867e-08
8.368086229e-08
1.128728767e-07
1.293893299e-07
9.232241651e-09
9.815386189e-09
1.250118481e-08
1.408631784e-08
1.273097007e-08
1.128545582e-09
1.377728863e-09
1.5378852e-09
1.581816277e-09
1.378959155e-09
2.203084505e-10
2.476458036e-10
2.070399978e-10
2.045610162e-10
1.623509324e-10
5.038845174e-11
5.252290301e-11
6.78981724e-11
4.702925897e-11
3.022725604e-11
-1.70935526e-11
1.129726575e-11
1.47022851e-11
9.532392919e-12
5.966529175e-12
4.015490944e-12
3.228135659e-12
4.217212164e-12
3.65487664e-12
3.011281387e-12
1.870249421e-12
1.501796605e-12
1.078042372e-12
1.187742417e-12
8.495745833e-13
6.080926197e-13
8.633839271e-13
7.696180187e-13
5.481075123e-13
2.361762916e-13
1.903576466e-13
1.628953477e-13
1.253820505e-13
5.583372693e-14
-2.240112995e-14
-7.568033624e-14
-1.14474186e-13
-1.513278899e-13
-2.072071381e-13
-2.672997905e-13
-2.378433402e-13
-2.687077785e-13
-3.295594357e-13
-3.52964158e-13
-4.539520126e-13
-2.478885518e-13
-4.553030585e-13
-5.275203257e-13
-5.439822944e-13
-6.207883535e-13
-4.383556061e-13
-4.630781223e-13
-5.70803338e-13
-6.464425417e-13
-9.822139093e-13
-3.3177155e-13
-4.592750502e-14
-4.313072711e-13
-5.433491926e-13
-8.074411747e-13
3.532874475e-14
9.916084369e-14
-1.611402563e-13
-2.17836525e-13
-3.418487134e-13
1.326385697e-13
1.697214845e-13
1.259182472e-13
-5.988358786e-14
6.603924078e-13
2.954866704e-13
2.781105788e-13
1.642335083e-13
4.26185414e-13
2.819719644e-13
1.062755842e-13
2.055291261e-13
4.044030502e-13
2.415711584e-13
2.796747564e-13
4.81940529e-14
4.344904827e-14
7.453459037e-14
1.179313345e-13
1.972987561e-13
-3.167499225e-14
-2.526362878e-14
-3.688695191e-14
-1.639319238e-14
-1.176021342e-13
-1.128247828e-13
5.872226654e-14
2.788679127e-14
1.276636169e-13
-6.301156154e-14
1.691765966e-14
1.308087858e-13
-8.686109751e-14
-2.233913672e-13
-5.750593238e-15
-3.446793105e-13
-1.831427095e-13
-7.778799664e-15
5.257236947e-14
-5.123074178e-14
4.722296711e-14
-4.440805507e-14
-3.530148267e-14
-3.158559227e-14
-7.427824436e-14
-2.377397409e-14
-2.088957973e-14
-2.602673891e-14
-1.724654074e-14
-2.515241828e-13
-6.614293066e-14
-3.222612702e-13
-9.572779586e-14
2.620921373e-13
-1.311600751e-13
5.100729585e-13
-2.673277024e-13
5.439338612e-13
1.042040998e-14
4.164353872e-14
2.149159501e-15
2.594757967e-14
2.906772734e-14
4.302751033e-14
4.970104026e-14
-1.402533651e-14
4.328971554e-15
1.8936722e-14
2.537565113e-14
6.526278044e-15
-4.803040192e-14
-5.146270668e-14
-3.016829749e-14
-2.003162228e-14
-8.133842032e-14
-1.000367661e-13
-1.401927851e-13
-1.297720933e-13
-1.084010509e-13
-9.389581249e-15
-1.997024935e-13
-6.441390094e-14
-4.281994329e-14
-1.729179497e-14
3.86390641e-16
-1.228135782e-13
-8.665792212e-14
-5.40490032e-14
-2.529428945e-14
-3.915902125e-15
-1.749020098e-13
-1.326154157e-13
-9.273068393e-14
-5.376367649e-14
-1.482383398e-14
-3.140524608e-13
-2.546563902e-13
-1.858224228e-13
-7.954487023e-14
5.358415994e-14
-3.308647382e-13
-3.03037557e-13
-7.831592852e-13
-7.746254958e-13
-7.66243576e-13
-9.884058894e-13
-9.671154805e-13
-4.944842714e-13
-4.723242788e-13
-3.726883994e-13
-7.159385334e-13
-6.624418463e-13
-4.562180739e-13
9.529470906e-14
-1.199389011e-13
-1.586364418e-12
-1.730438412e-12
-7.441126719e-13
-4.493059655e-13
-3.415408432e-13
-9.477394353e-13
-6.540158668e-13
-5.106081679e-13
-3.909391066e-13
-2.58234509e-13
-1.102520155e-12
-8.868717115e-13
-7.621525728e-13
-6.539728301e-13
-5.314349279e-13
-1.720756487e-12
-1.543969414e-12
-1.337506734e-12
-9.449107045e-13
-5.207834374e-13
-2.188376518e-12
-2.277657477e-12
-3.776479915e-12
-2.554361132e-12
-2.34689579e-12
-3.241232971e-12
-3.642546707e-12
1.918698604e-12
1.718395616e-12
1.845461903e-12
1.469285806e-12
1.307645332e-12
1.83847745e-12
2.175246476e-12
2.417830536e-12
9.277684052e-13
1.096244531e-12
2.759830468e-12
-3.250340899e-12
-2.752737536e-12
-7.356214809e-12
-4.108062198e-12
2.993673897e-13
-2.829067511e-13
-2.686060025e-13
-2.690825936e-13
-2.691854754e-13
-2.691952821e-13
-2.691735786e-13
-2.691433172e-13
-2.691089531e-13
-2.690757372e-13
-2.690437974e-13
-2.690194703e-13
-2.691463743e-13
-2.696198704e-13
-2.696109747e-13
-2.690477719e-13
-2.688800237e-13
-2.6885016e-13
-2.688264613e-13
-2.688036811e-13
-2.687815841e-13
-2.687601027e-13
-2.687392028e-13
-2.687188745e-13
-2.686991054e-13
-2.686798534e-13
-2.686611e-13
-2.686428418e-13
-2.686250712e-13
-2.686077614e-13
-2.685909255e-13
-2.685745741e-13
-2.685586911e-13
-2.685432513e-13
-2.685282262e-13
-2.68513627e-13
-2.684994088e-13
-2.684855731e-13
-2.684721053e-13
-2.68458994e-13
-2.684462264e-13
-2.684338401e-13
-2.684218002e-13
-2.684100626e-13
-2.683986941e-13
-2.683876868e-13
-2.68377055e-13
-2.683667968e-13
-2.683569391e-13
-2.683475135e-13
-2.683385167e-13
-2.68329952e-13
-2.683218871e-13
-2.683139972e-13
-2.683039558e-13
-2.682808836e-13
-2.682406494e-13
-2.681948233e-13
-3.766206382e-11
-2.333245131e-11
1.206865462e-12
-2.985636057e-13
-3.075835146e-13
-3.048500983e-13
-3.037222044e-13
-3.032343981e-13
-3.031206981e-13
-3.032001945e-13
-3.033786896e-13
-3.03601283e-13
-3.03837221e-13
-3.040459878e-13
-3.038617658e-13
-2.993879703e-13
-2.992891125e-13
-3.044413448e-13
-3.050301209e-13
-3.052195782e-13
-3.053839075e-13
-3.055399562e-13
-3.056890384e-13
-3.058315735e-13
-3.059693204e-13
-3.061022565e-13
-3.062313637e-13
-3.063570997e-13
-3.064791866e-13
-3.065978333e-13
-3.067126395e-13
-3.068237374e-13
-3.069313258e-13
-3.070355606e-13
-3.071361439e-13
-3.072333076e-13
-3.073274019e-13
-3.07418166e-13
-3.07506123e-13
-3.075910877e-13
-3.076735767e-13
-3.077534007e-13
-3.078306253e-13
-3.079053785e-13
-3.079775434e-13
-3.080472344e-13
-3.081143235e-13
-3.081792546e-13
-3.082417202e-13
-3.083017803e-13
-3.083592965e-13
-3.08414406e-13
-3.084667412e-13
-3.085167714e-13
-3.085649548e-13
-3.086187636e-13
-3.087164673e-13
-3.090005703e-13
-3.096339697e-13
-3.093620903e-13
-1.146818644e-11
-4.030867087e-11
2.543535298e-13
-3.062697012e-13
-3.091133773e-13
-3.081733785e-13
-3.066638434e-13
-3.057740721e-13
-3.054056107e-13
-3.053902637e-13
-3.055761534e-13
-3.058630645e-13
-3.061869225e-13
-3.064821785e-13
-3.063233844e-13
-3.016333848e-13
-3.015250362e-13
-3.070865366e-13
-3.077582347e-13
-3.079752373e-13
-3.08160459e-13
-3.083349861e-13
-3.085008905e-13
-3.086588409e-13
-3.088098691e-13
-3.089551939e-13
-3.090959609e-13
-3.092323538e-13
-3.093647591e-13
-3.094934143e-13
-3.094993925e-13
-3.09451362e-13
-3.094049445e-13
-3.093601143e-13
-3.093168995e-13
-3.092752191e-13
-3.092350817e-13
-3.091964812e-13
-3.091593003e-13
-3.091235497e-13
-3.090891428e-13
-3.09056049e-13
-3.090241346e-13
-3.089932876e-13
-3.089634744e-13
-3.08934614e-13
-3.089068024e-13
-3.088800121e-13
-3.088542588e-13
-3.088294648e-13
-3.088057124e-13
-3.087829364e-13
-3.087612252e-13
-3.087402716e-13
-3.087193756e-13
-3.086933105e-13
-3.086419034e-13
-3.085128937e-13
-3.082804554e-13
-3.080878524e-13
-1.91427798e-10
-2.491864443e-11
2.68540762e-15
-4.080065085e-13
-2.961010435e-13
-3.088731526e-13
-3.060881851e-13
-3.048889356e-13
-3.043389388e-13
-3.04222254e-13
-3.044290554e-13
-3.048309414e-13
-3.053242214e-13
-3.058046112e-13
-3.057468944e-13
-3.008992583e-13
-3.010575229e-13
-3.06938049e-13
-3.077137205e-13
-3.079776566e-13
-3.08196625e-13
-3.083982033e-13
-3.085863642e-13
-3.087630434e-13
-3.08929847e-13
-3.090879736e-13
-3.092384555e-13
-3.093820605e-13
-3.095194438e-13
-3.094745595e-13
-3.094245687e-13
-3.093764352e-13
-3.093299789e-13
-3.092849582e-13
-3.092414227e-13
-3.091993625e-13
-3.091586895e-13
-3.091194293e-13
-3.090815585e-13
-3.090450368e-13
-3.090098576e-13
-3.089760134e-13
-3.089433872e-13
-3.089118851e-13
-3.088814411e-13
-3.088519838e-13
-3.088236122e-13
-3.087963111e-13
-3.087700737e-13
-3.087448667e-13
-3.087207615e-13
-3.086976659e-13
-3.086756639e-13
-3.08654164e-13
-3.086316437e-13
-3.086004846e-13
-3.08536957e-13
-3.083945669e-13
-3.081762027e-13
-3.080206431e-13
-2.486497738e-09
-1.533474232e-10
3.68991382e-11
-8.920917637e-14
2.146388025e-13
-2.940208771e-13
-3.077567237e-13
-3.037970884e-13
-3.028470115e-13
-3.026278618e-13
-3.02855373e-13
-3.033651582e-13
-3.040115085e-13
-3.046624516e-13
-3.046816377e-13
-2.995909339e-13
-3.002734943e-13
-3.065802955e-13
-3.075179377e-13
-3.078605829e-13
-3.081292008e-13
-3.083647597e-13
-3.085776061e-13
-3.087731013e-13
-3.089545092e-13
-3.091239767e-13
-3.09283182e-13
-3.094334513e-13
-3.09503828e-13
-3.094503495e-13
-3.093993462e-13
-3.09350587e-13
-3.093038439e-13
-3.092589224e-13
-3.092157339e-13
-3.09174153e-13
-3.091340868e-13
-3.090954712e-13
-3.09058247e-13
-3.090223509e-13
-3.089877196e-13
-3.08954344e-13
-3.089221751e-13
-3.088911729e-13
-3.088613084e-13
-3.088324311e-13
-3.08804469e-13
-3.087775114e-13
-3.087515918e-13
-3.087266956e-13
-3.087028048e-13
-3.086797906e-13
-3.086576963e-13
-3.086361616e-13
-3.086128225e-13
-3.085769891e-13
-3.085033892e-13
-3.08353389e-13
-3.081472407e-13
-3.080239742e-13
-1.304663974e-08
-9.467161608e-10
-2.73436871e-11
-7.50312768e-12
1.967355468e-12
3.615281999e-19
-3.092341484e-13
-3.040735448e-13
-3.0261381e-13
-3.020925761e-13
-3.021042939e-13
-3.024603074e-13
-3.03026312e-13
-3.036499121e-13
-3.035631861e-13
-2.980596899e-13
-2.99162575e-13
-3.060112913e-13
-3.071837532e-13
-3.076526508e-13
-3.080063609e-13
-3.082989261e-13
-3.085502704e-13
-3.087727824e-13
-3.089738278e-13
-3.091578777e-13
-3.093280103e-13
-3.094865218e-13
-3.094804578e-13
-3.094252341e-13
-3.09373023e-13
-3.093234848e-13
-3.092763608e-13
-3.092313897e-13
-3.091883857e-13
-3.091471913e-13
-3.091076785e-13
-3.090697248e-13
-3.090332191e-13
-3.089980569e-13
-3.08964169e-13
-3.089314901e-13
-3.088999705e-13
-3.088696332e-13
-3.088404788e-13
-3.088124083e-13
-3.087852378e-13
-3.087591141e-13
-3.087347464e-13
-3.08711373e-13
-3.086883888e-13
-3.086662399e-13
-3.08645208e-13
-3.0862485e-13
-3.08601185e-13
-3.085604151e-13
-3.084758716e-13
-3.083189095e-13
-3.081246428e-13
-3.080280366e-13
-3.995295751e-09
-4.36298272e-09
-2.38751467e-10
-3.694749114e-12
-2.96939186e-12
-4.031422471e-13
-2.310548293e-13
-3.095192399e-13
-3.031836602e-13
-3.019548329e-13
-3.01659977e-13
-3.018145389e-13
-3.022385573e-13
-3.027374004e-13
-3.023933451e-13
-2.962930579e-13
-2.976428546e-13
-3.051502359e-13
-3.066065028e-13
-3.072385082e-13
-3.077224384e-13
-3.08113795e-13
-3.08435508e-13
-3.087069687e-13
-3.08942995e-13
-3.091530736e-13
-3.09343307e-13
-3.095183042e-13
-3.094624859e-13
-3.094030341e-13
-3.093475094e-13
-3.092955349e-13
-3.092466525e-13
-3.09200536e-13
-3.091570566e-13
-3.091159055e-13
-3.090769054e-13
-3.090397919e-13
-3.090043864e-13
-3.089706175e-13
-3.089383996e-13
-3.089076834e-13
-3.08878368e-13
-3.088502544e-13
-3.088232873e-13
-3.08797463e-13
-3.087727429e-13
-3.087488849e-13
-3.087258698e-13
-3.087036542e-13
-3.086821979e-13
-3.086612228e-13
-3.086404639e-13
-3.086180311e-13
-3.085892984e-13
-3.085403421e-13
-3.084457102e-13
-3.082863956e-13
-3.081048598e-13
-3.080315437e-13
2.918221809e-07
2.097182714e-09
-1.313167803e-09
-8.412443757e-11
-3.954416294e-11
-3.291768588e-12
-4.545593501e-13
-2.333716386e-13
-3.069092042e-13
-3.02137743e-13
-3.013416911e-13
-3.012851585e-13
-3.015739461e-13
-3.019581974e-13
-3.013811123e-13
-2.947389112e-13
-2.9618921e-13
-3.041921546e-13
-3.058632133e-13
-3.066193948e-13
-3.072230897e-13
-3.077212901e-13
-3.081309692e-13
-3.084690962e-13
-3.087530852e-13
-3.089993749e-13
-3.092175338e-13
-3.094138556e-13
-3.094967179e-13
-3.094318746e-13
-3.093718254e-13
-3.093159458e-13
-3.092637294e-13
-3.092147232e-13
-3.091686049e-13
-3.091251001e-13
-3.090839364e-13
-3.090448925e-13
-3.09007825e-13
-3.089726008e-13
-3.089390717e-13
-3.089071986e-13
-3.088769428e-13
-3.088480826e-13
-3.088204082e-13
-3.087938508e-13
-3.087684717e-13
-3.087442002e-13
-3.087209139e-13
-3.086984011e-13
-3.086765151e-13
-3.086548865e-13
-3.086330153e-13
-3.086085269e-13
-3.085756358e-13
-3.085187483e-13
-3.084155853e-13
-3.082562254e-13
-3.080868762e-13
-3.080349947e-13
-1.623290764e-06
-8.484623852e-08
-7.03231183e-09
-5.001514407e-10
-2.628890023e-11
-5.305958841e-11
3.615740069e-12
6.295719029e-13
-2.971756524e-13
-3.056628656e-13
-3.011096072e-13
-3.007505232e-13
-3.009512981e-13
-3.012652157e-13
-3.004742098e-13
-2.933591422e-13
-2.948608742e-13
-3.032688653e-13
-3.051078158e-13
-3.059461303e-13
-3.066430145e-13
-3.072408318e-13
-3.077400732e-13
-3.081520992e-13
-3.084949231e-13
-3.087859351e-13
-3.090386633e-13
-3.092625052e-13
-3.094637476e-13
-3.094752057e-13
-3.094088975e-13
-3.093476482e-13
-3.09290771e-13
-3.092377101e-13
-3.091880341e-13
-3.091413782e-13
-3.090974501e-13
-3.090559965e-13
-3.090168127e-13
-3.089797128e-13
-3.089445353e-13
-3.089111525e-13
-3.088794031e-13
-3.088491742e-13
-3.088203436e-13
-3.087927573e-13
-3.087663241e-13
-3.087409641e-13
-3.087166876e-13
-3.086933706e-13
-3.086708288e-13
-3.086484166e-13
-3.08625301e-13
-3.085984963e-13
-3.085609636e-13
-3.08496723e-13
-3.083872972e-13
-3.082294435e-13
-3.080704653e-13
-3.080383929e-13
1.16217612e-06
6.899780039e-08
-2.716039324e-08
-2.475779459e-09
-1.19617052e-10
3.322273268e-13
-1.737842879e-12
-2.388515246e-13
6.060806434e-14
-3.074007954e-13
-3.009488528e-13
-3.001050451e-13
-3.002178436e-13
-3.005104042e-13
-2.995647534e-13
-2.920079984e-13
-2.935554006e-13
-3.023415023e-13
-3.043402098e-13
-3.052421359e-13
-3.060124343e-13
-3.066987295e-13
-3.072896285e-13
-3.07784716e-13
-3.081958113e-13
-3.085400742e-13
-3.088339189e-13
-3.090900027e-13
-3.093171782e-13
-3.095215324e-13
-3.094512213e-13
-3.093839154e-13
-3.093218039e-13
-3.092641792e-13
-3.092104976e-13
-3.091603096e-13
-3.09113258e-13
-3.090690382e-13
-3.090273907e-13
-3.089880919e-13
-3.089509406e-13
-3.08915767e-13
-3.088824171e-13
-3.088507391e-13
-3.088206172e-13
-3.087919062e-13
-3.087645057e-13
-3.087382538e-13
-3.087130601e-13
-3.086887765e-13
-3.086652926e-13
-3.086418681e-13
-3.086173441e-13
-3.085879065e-13
-3.085453979e-13
-3.084746524e-13
-3.083607359e-13
-3.082054989e-13
-3.080555034e-13
-3.080426178e-13
2.517575795e-07
-2.976301591e-06
-4.230616356e-09
-5.933625274e-09
-4.664527654e-10
8.38109664e-12
-3.019215202e-11
4.066607904e-12
9.328083794e-13
-2.983077748e-13
-3.010852023e-13
-2.996058298e-13
-2.995544384e-13
-2.997351163e-13
-2.985242408e-13
-2.905037921e-13
-2.921971733e-13
-3.013558548e-13
-3.035250594e-13
-3.044890274e-13
-3.053242516e-13
-3.060910815e-13
-3.06772134e-13
-3.073561195e-13
-3.078456633e-13
-3.082539695e-13
-3.085979877e-13
-3.088931568e-13
-3.091513221e-13
-3.093808794e-13
-3.094985225e-13
-3.094242443e-13
-3.093561622e-13
-3.092933911e-13
-3.092352456e-13
-3.091811607e-13
-3.091306913e-13
-3.090834566e-13
-3.09039135e-13
-3.089974573e-13
-3.089581814e-13
-3.089211027e-13
-3.088860443e-13
-3.088528313e-13
-3.088213396e-13
-3.087913945e-13
-3.087628994e-13
-3.087356893e-13
-3.087096456e-13
-3.08684519e-13
-3.086600923e-13
-3.086354675e-13
-3.086091688e-13
-3.085766634e-13
-3.085290988e-13
-3.084525217e-13
-3.083353409e-13
-3.081834229e-13
-3.080415364e-13
-3.080469729e-13
-2.838792646e-07
7.444620084e-10
-6.314491101e-08
-3.17323909e-08
-1.684081512e-09
5.336091026e-11
9.392150987e-12
-9.268055138e-13
4.434233083e-14
-2.483030188e-13
-3.00785403e-13
-2.995357167e-13
-2.990833e-13
-2.988664814e-13
-2.972618851e-13
-2.88752838e-13
-2.907572429e-13
-3.002872733e-13
-3.026379007e-13
-3.036695359e-13
-3.045696959e-13
-3.054141013e-13
-3.061839629e-13
-3.068607037e-13
-3.074377584e-13
-3.079214129e-13
-3.083262715e-13
-3.086691237e-13
-3.089646478e-13
-3.092239823e-13
-3.094549933e-13
-3.094686441e-13
-3.093938156e-13
-3.093252779e-13
-3.092621641e-13
-3.092037758e-13
-3.091495614e-13
-3.090990445e-13
-3.090518372e-13
-3.090076063e-13
-3.089660691e-13
-3.089269812e-13
-3.088901388e-13
-3.088553422e-13
-3.088224408e-13
-3.087912219e-13
-3.087615792e-13
-3.087333251e-13
-3.08706339e-13
-3.086803256e-13
-3.086549314e-13
-3.086290188e-13
-3.086006013e-13
-3.085645534e-13
-3.08512078e-13
-3.084303639e-13
-3.08310867e-13
-3.081626797e-13
-3.080282721e-13
-3.080523929e-13
2.033831602e-07
1.821347977e-08
-4.702834483e-08
-1.417949933e-07
-6.312702512e-09
1.655670592e-10
4.362136708e-11
-2.172766865e-11
2.823043211e-12
-1.091565494e-13
-3.007742719e-13
-2.995069191e-13
-2.984304631e-13
-2.979137757e-13
-2.959778663e-13
-2.869789135e-13
-2.893950977e-13
-2.992137796e-13
-3.017282524e-13
-3.028208317e-13
-3.037786425e-13
-3.04692033e-13
-3.055430842e-13
-3.063091116e-13
-3.069759932e-13
-3.075420374e-13
-3.080168111e-13
-3.084159603e-13
-3.087558189e-13
-3.090501055e-13
-3.093091463e-13
-3.095172e-13
-3.094348321e-13
-3.09359908e-13
-3.092913274e-13
-3.092282295e-13
-3.091699314e-13
-3.091158552e-13
-3.090655373e-13
-3.090185715e-13
-3.089746292e-13
-3.089334193e-13
-3.088947048e-13
-3.088582482e-13
-3.088238603e-13
-3.087913111e-13
-3.087604783e-13
-3.087311483e-13
-3.087031779e-13
-3.086761805e-13
-3.086496474e-13
-3.086222633e-13
-3.085915329e-13
-3.085517684e-13
-3.084945387e-13
-3.084083514e-13
-3.082874576e-13
-3.081433108e-13
-3.08015876e-13
-3.080620074e-13
-1.993581381e-07
-1.599847398e-07
2.939093583e-06
-4.452913266e-07
-7.982333674e-10
2.310152675e-09
2.254640589e-10
4.16884277e-11
1.465097988e-11
-8.565449255e-14
-2.999481316e-13
-2.994975331e-13
-2.980978513e-13
-2.973110259e-13
-2.948945917e-13
-2.853619623e-13
-2.88262887e-13
-2.982704042e-13