/*--------------------------------*- C++ -*----------------------------------*\
  =========                 |
  \\      /  F ield         | OpenFOAM: The Open Source CFD Toolbox
   \\    /   O peration     | Website:  https://openfoam.org
    \\  /    A nd           | Version:  10
     \\/     M anipulation  |
\*---------------------------------------------------------------------------*/
FoamFile
{
    format      ascii;
    class       volVectorField;
    location    "0.02498436188";
    object      ddtCorrDdt0(rho,U);
}
// * * * * * * * * * * * * * * * * * * * * * * * * * * * * * * * * * * * * * //

dimensions      [1 -2 -2 0 0 0 0];

internalField   nonuniform List<vector> 
5170
(
(8.935400229 8.756002429e-13 21.56174321)
(6.749187943 3.468199356e-12 -38.28145673)
(-9.52950236 2.165821564e-12 -5.341461098)
(9.275732957 -3.346003892e-11 4.763017186)
(-0.008989176441 -1.318700089e-12 -25.14362437)
(-7.120691571 1.020366079e-09 -4.525913181)
(-0.5958766095 1.13126691e-08 -14.62323006)
(0.5059354106 2.377191478e-09 -12.66521392)
(-0.8553447917 5.458444489e-10 -12.4758751)
(0.4084820406 2.161100124e-11 -11.66476061)
(-2.441342841 -8.952857512e-09 -6.281542067)
(0.3232385118 -1.303448773e-08 -1.741208919)
(1.609015678 -2.991579738e-09 -0.6069420138)
(0.3041443844 -2.133307536e-10 -7.988826995)
(0.87386656 -4.875352126e-12 -7.329247875)
(-0.3499386682 1.105296079e-09 -17.36171313)
(1.01413407 -8.797847387e-09 -20.00074117)
(-0.4020170168 -1.842765116e-09 -26.40549404)
(0.04258392808 -5.223682869e-10 -7.022862692)
(0.03174146628 -3.38467825e-11 -4.909382725)
(-0.1015773062 -1.630556879e-09 -13.20010555)
(-0.903468895 2.773375028e-10 -10.21252294)
(-3.016896073 -5.459615491e-09 -8.79727208)
(-1.474188813 -7.140386527e-10 -8.973237761)
(-0.5462153185 -3.953096771e-11 -9.08839645)
(-0.9794591032 -4.226803213e-09 18.88628003)
(-0.861658592 -2.654352771e-08 20.11699927)
(5.704496481 -2.41455948e-09 45.4156017)
(3.718961834 -1.718770842e-08 -3.858225956)
(0.5772434406 -3.363080026e-10 1.412115966)
(4.963938541 -7.665230803e-10 -24.63329932)
(4.09369533 -2.961269439e-09 -38.26032083)
(-1.123054706 -2.948100973e-09 -119.4448569)
(-3.202290012 -6.48468351e-09 2.93183076)
(0.938522594 -2.088423981e-10 -1.156121218)
(2.363067865 3.265094164e-09 -68.1005136)
(0.8436433587 6.146704969e-09 -30.68629703)
(-4.107897842 4.707297221e-09 83.40741074)
(-8.351710682 -1.6475461e-09 -16.03537861)
(-0.9990459236 -2.888500454e-11 -25.54480051)
(-7.047602361 8.5625306e-09 30.74007191)
(-13.63073066 1.419601693e-08 -10.15590722)
(4.954542158 -1.17684573e-09 213.0155622)
(25.46146221 1.044497156e-09 -2.39650691)
(-1.790326547 -3.674587013e-09 5.308257)
(0.7448567 -8.073075793e-09 96.99681494)
(0.8166116949 -1.728995865e-08 33.01240599)
(-3.755126449 -4.434325945e-09 -511.0994889)
(2.056757808 -5.874319267e-10 51.48356187)
(5.220872994 -4.84771568e-09 34.34061861)
(3.807206385 -6.326591552e-09 -34.93081475)
(18.13499104 -1.922974571e-08 6.008817745)
(-6.581133671 -4.906304114e-09 42.25483693)
(-31.95731119 -2.552477502e-09 -49.61035947)
(2.083182778 -2.492426385e-09 -19.98967726)
(-0.08052009331 5.211313202e-09 -112.3932544)
(2.352831722 -1.659166129e-08 -75.91245295)
(0.419840705 -8.285935999e-09 115.7726661)
(-1.498833102 -1.815751513e-09 -98.60706163)
(-4.109733728 -4.274363976e-09 -70.19385838)
(-2.356961694 1.133319429e-08 -60.74737265)
(-7.162811693 -6.029352118e-08 -71.70005003)
(3.695655305 -2.269507328e-09 36.09610021)
(9.811836969 7.212587447e-11 -64.05256258)
(-3.141380309 -1.012733293e-08 -68.79329911)
(-0.3254712828 3.140989541e-09 -26.89518719)
(-4.143840852 2.376872615e-08 -53.97822943)
(2.721883429 -4.646859366e-10 -59.36647097)
(7.408271935 8.593744063e-10 -48.54875085)
(-1.124375424 -2.190631523e-09 -56.38541337)
(0.3060379289 -5.307257017e-09 -32.12780484)
(-0.2401846219 -9.532951795e-09 -56.80975134)
(-0.8000932189 5.593139043e-10 -101.2391615)
(1.037836154 1.191635694e-09 -29.30157619)
(2.350963261 -1.809635088e-09 -52.25017917)
(-0.6909722325 7.756004337e-09 -37.49360911)
(1.565951605 9.873852478e-09 -33.30415118)
(-3.984574265 1.008941635e-09 -86.14946083)
(-3.777745184 1.60657304e-10 -41.8743292)
(2.344440091 1.672858528e-08 -48.66568127)
(0.2276810557 -7.473342655e-09 -45.39340698)
(3.657319508 1.972016462e-08 -25.5864738)
(3.433515879 1.995555432e-09 -29.50651268)
(-2.572388689 1.843461978e-09 -63.11168307)
(0.180247197 -2.967271469e-08 -42.06420738)
(3.114242879 3.51307787e-09 -50.20389936)
(-0.925193658 1.008300132e-07 -107.9654925)
(2.004096819 7.825800154e-10 -0.5345773461)
(0.7972126913 2.73927528e-09 -56.82945405)
(-1.781981289 5.320608698e-09 -37.9343604)
(-6.725370075 2.967587002e-07 -34.40543825)
(3.481823939 -9.546160699e-09 -44.5270343)
(-5.206311934 1.445547525e-09 -11.15950997)
(2.281076337 4.206282227e-10 -14.89250014)
(-2.484600292 4.311352923e-09 -26.62280819)
(-1.765969798 2.295492122e-08 -11.91574415)
(-16.80839714 1.000492567e-09 2.770013218)
(-12.80361278 -2.71910287e-09 -34.40348475)
(-7.610384578 -7.484002034e-10 8.060501124)
(-3.535749124 4.582069067e-10 -18.78405089)
(-0.01708871214 -4.774650053e-12 1.228064646)
(2.304026946 5.305508018e-11 2.855472717)
(-0.002278508753 -4.996466163e-11 0.1045532706)
(-40.00859073 -3.378418028e-09 24.23776411)
(-0.0713816672 -3.021318381e-12 -0.4096411324)
(-0.07682803194 1.889088035e-08 6.341155579)
(-2.695649639 -5.467563593e-10 7.981844283)
(-4.639453522 5.313262931e-12 9.447188917)
(-5.683487783 -1.966541945e-09 16.81327614)
(-3.406788624 -1.070231872e-11 20.19075965)
(-0.8103140695 -5.39468283e-10 -0.1134632373)
(-0.8509146929 -2.689157291e-08 0.009123794126)
(3.839205892 3.390141266e-10 1.641122081)
(3.749232921 1.212864466e-09 1.550228927)
(0.297007952 5.559496309e-11 3.65818637)
(2.07452914 -6.277081191e-09 -4.840246717)
(0.4588608015 7.376369629e-10 -4.709938406)
(-0.3992185467 -5.53730324e-10 -4.845923733)
(0.8878817837 -3.526147071e-09 -5.646512892)
(0.1010025372 -3.157067287e-10 -5.2895844)
(-2.011377107 -2.488685877e-09 -3.495317006)
(-2.87515592 -5.702484538e-11 -4.771947388)
(2.228311336 -6.219508858e-10 -3.947342486)
(3.016864144 -1.427540141e-08 -4.873934872)
(-0.01395352481 -2.534457268e-10 -4.339206733)
(-1.575442127 -1.372035567e-09 -2.251183533)
(-0.7677285128 -1.050336318e-10 -1.911958378)
(0.7947551167 -3.111426063e-10 -1.82358141)
(0.6808261327 -8.165920267e-10 -2.214327675)
(0.4247718609 -1.47465458e-08 -1.878286067)
(-0.09947292595 -2.025043669e-08 -5.395331098)
(1.431718075 -3.319500679e-10 -5.064740458)
(4.308083742 -1.313277924e-10 -4.664663693)
(2.23879552 -4.357989356e-09 -5.959555497)
(-0.4413377948 -1.202530254e-11 -4.862923152)
(0.6000986472 -4.267796117e-09 -5.393629702)
(2.241733148 -2.150066866e-10 -5.864550504)
(-0.5805043155 4.84595522e-11 -6.189472938)
(-0.4624874654 -3.556273044e-09 -6.606649921)
(1.326945206 -5.745435075e-11 -5.956943295)
(-0.8733277071 -1.527337284e-09 -4.646178465)
(-0.1445750471 9.364144608e-10 -4.933179164)
(-0.06151062525 2.285236413e-10 -5.456727008)
(-0.5802239469 5.879985461e-10 -5.502271939)
(-0.02693501065 5.949288992e-10 -4.10125307)
(0.3519821075 1.861654952e-08 -3.916778277)
(-0.8803251167 -4.564951634e-09 -4.582481732)
(0.2486898263 -4.875581427e-10 -3.954387901)
(4.458979992 -4.982680033e-09 -4.351750484)
(2.969129296 3.807344587e-09 -3.996125927)
(-1.830619727 -1.617873605e-08 -5.679566748)
(0.5032261467 -2.069966061e-09 -6.13093561)
(0.793324959 -7.982854727e-13 -5.772707567)
(-2.309580467 -1.096290064e-08 -5.646526902)
(-1.249008823 2.510409108e-10 -6.747698942)
(0.3326709003 1.616379543e-09 -8.169654038)
(-0.1816904941 -1.291948187e-08 -8.768136964)
(0.2184771409 7.534363159e-11 -8.929527514)
(-0.6407568214 5.290595474e-10 -8.874831942)
(-1.045383924 1.468945369e-10 -8.355608295)
(-2.168940629 -6.035640637e-09 -9.237018682)
(-2.017019325 -1.625179117e-08 -7.937448409)
(-0.7963716176 -6.121520425e-11 -6.551840529)
(-1.887245862 -6.390448328e-09 -8.680075922)
(-0.997268165 4.774791375e-09 -8.013920129)
(10.63861054 -6.608066683e-09 -9.622946403)
(16.75046791 -1.235807109e-10 -14.87828728)
(1.720204406 5.239875484e-10 -8.11432912)
(-12.31101156 -1.790421781e-09 -8.200921668)
(-7.461046574 1.103555604e-10 -2.367919259)
(-26.24648003 3.398490387e-08 -2.647944234)
(5.214025419 -2.731891869e-09 13.24038413)
(15.00531389 -4.639736772e-10 19.51974373)
(27.55029041 2.204805554e-08 -30.84903808)
(30.07980764 7.593444783e-10 -28.06732659)
(80.66416232 -5.0287698e-09 -4.57011301)
(141.0719888 -6.121518216e-10 1.891056392)
(-211.2377024 2.091471255e-11 -9.768456519)
(-235.8234771 1.925679975e-08 -11.19904444)
(18.08337986 -1.075585123e-09 -17.94276303)
(0.9652824938 -1.42548703e-08 -11.16891383)
(5.294932955 9.038681225e-10 -23.09846241)
(-36.06538119 1.265695392e-09 -44.522716)
(-51.98982075 -1.545752253e-08 5.746276098)
(-13.81402308 -1.254005306e-10 12.44179578)
(3.094594207 1.130817838e-09 -4.684144377)
(3.684262895 2.447104907e-10 -15.59904121)
(-1.475488599 -4.310409972e-09 -13.25409501)
(-12.35369628 1.550380805e-09 6.826691206)
(-11.75986003 2.454116575e-10 -8.390137165)
(-31.63368991 -2.383748761e-10 11.56147255)
(2.502772167 -2.61329683e-09 -35.01627833)
(48.15943098 6.803893041e-10 -10.71246117)
(-34.90727562 2.777387526e-10 46.01587005)
(-52.7922964 8.197117159e-10 -33.79707108)
(-3.604217279 -5.715088308e-10 1.340233158)
(65.17958812 -1.932215436e-10 29.26426669)
(-554.3226893 5.744708865e-10 -102.2274343)
(-17.81901557 -7.59029714e-11 -127.2477295)
(173.2479464 -2.817710246e-10 145.6723673)
(-29.83465775 1.854022607e-09 -174.0043201)
(-12.06085881 3.283596068e-09 199.9090542)
(63.79760576 -2.145594856e-08 90.68423572)
(-93.27501602 -8.230084998e-10 -68.41276195)
(1828.316927 7.566078662e-11 1145.482096)
(21.21032458 3.203732345e-09 508.9795037)
(12.46143888 3.185864188e-09 -33.13340819)
(-24.49019427 1.674723541e-09 119.6847336)
(-14.25768345 -1.421923874e-09 94.4719384)
(41.75178866 -7.256317826e-09 -6.911242006)
(-104.3705079 4.867305728e-09 -16.59702025)
(49.91850419 2.459146715e-09 -15.87181599)
(-276.7037742 3.113133001e-08 118.9999631)
(142.5802889 6.636877368e-10 16.39812179)
(76.96629859 -1.204284674e-09 -16.78635897)
(-69.22331819 8.751256876e-09 -494.3310492)
(-20.74489306 1.960356617e-09 28.95863451)
(39.3976324 5.435766637e-09 -227.6003945)
(204.2100619 4.664486199e-11 -117.8244889)
(-293.1574672 1.200210221e-09 -212.9301414)
(27.39490368 -9.475464848e-09 160.9728546)
(40.26139941 -8.670121325e-09 43.06060527)
(-119.7549332 2.477396408e-09 -108.4203935)
(-36.16671973 -3.052552255e-10 -155.2443741)
(11.75592664 -1.212465678e-09 -71.18248672)
(-92.75999318 -2.602468459e-09 79.40959994)
(-51.85204805 4.787845619e-09 173.416978)
(46.40876268 1.127156249e-08 190.0470283)
(-134.1866618 -6.906491659e-10 41.53678006)
(-16.01866528 2.393238824e-09 -51.4165421)
(5.059015513 1.083578015e-08 240.0814741)
(-79.34091439 4.124634324e-08 109.0950137)
(-271.6238241 4.980285661e-08 362.1571932)
(170.0103913 1.659301504e-09 72.49982461)
(53.41279385 2.197313386e-09 144.195866)
(-43.75479642 6.17493232e-09 254.7163384)
(-72.57692144 2.571953725e-08 95.71075939)
(-7.350998339 2.805045302e-09 42.27448527)
(41.95824032 -1.033970592e-11 85.57403092)
(63.57454447 -1.136486612e-09 75.72727428)
(-28.08701784 -2.171429932e-09 322.9143737)
(104.6422328 -2.309255184e-09 -102.9662496)
(394.4169749 -1.366796073e-09 -119.9374561)
(-41.28277078 -7.811506016e-10 56.2548769)
(23.05663149 -4.066194761e-10 34.43344703)
(-47.22339287 -6.078905594e-10 -81.55838708)
(-58.58540665 -8.448431867e-08 -24.86661444)
(-53.08585677 3.29235721e-09 6.053338207)
(-5.893803217 2.2815249e-09 15.8337823)
(-48.93777281 2.687124695e-09 24.96695909)
(83.28488841 1.55951463e-09 -151.616476)
(87.63779778 2.630585438e-09 -7.707570887)
(82.87725845 -5.402156403e-09 44.47763715)
(51.62179316 1.642075085e-09 20.90898093)
(-59.68092934 2.035584175e-09 15.8302327)
(-44.23859826 5.481439629e-10 772.6668577)
(29.38608898 7.64356873e-09 447.3969226)
(145.6607084 1.706519608e-08 178.795075)
(162.8086137 6.078637317e-09 8.327511566)
(74.649383 -2.78091494e-10 -19.38579107)
(-56.62082141 -1.049914315e-09 118.6426169)
(-49.24571434 -1.996156265e-09 85.31673354)
(73.31266448 -4.047737736e-09 -1.852530668)
(201.0164604 -2.407824696e-09 -96.96913188)
(200.5125111 -2.71846371e-09 -121.0758011)
(-70.14988882 -8.242317898e-10 -259.9269264)
(-91.33495888 -2.046509677e-09 -112.0466684)
(-81.83763054 1.232653291e-09 -79.04542472)
(35.26925143 -1.23441416e-09 -95.46356816)
(28.33427234 -4.902593964e-10 -133.1376076)
(-156.6563197 -1.370170346e-10 -216.0465389)
(-222.5231501 -5.672162775e-09 -244.3370997)
(-151.0053015 3.332367848e-08 -188.372526)
(-0.6275890845 -5.364658561e-09 -201.2392638)
(8.118070532 3.686003662e-10 -208.2144046)
(-200.8583237 -1.328184093e-09 -644.4957736)
(-308.5155463 3.782049513e-10 -421.7205512)
(-443.5001533 -1.512122983e-09 -211.3490169)
(-326.1814314 -1.103100147e-09 -106.9976146)
(-286.5211515 3.340726264e-09 -75.2471118)
(55.10489799 -6.425820679e-10 -176.4126376)
(165.0910215 -1.290231476e-10 -138.646112)
(150.8357038 4.220330884e-08 -102.1017667)
(121.4748182 2.405074617e-10 -60.32073283)
(11.88449596 -1.08465113e-09 -39.53614657)
(-26.45644385 8.494888642e-11 68.85655541)
(-39.02363929 -1.091523548e-08 37.66467595)
(-41.79693444 3.594463688e-08 -27.00094892)
(28.96927112 -3.951190025e-09 -69.36941084)
(-108.3524115 6.450416447e-10 -107.028793)
(-32.93324053 1.567188549e-08 -451.5586631)
(-119.4090997 -5.251993781e-08 -438.8738575)
(-172.3584268 9.949754242e-09 -429.960755)
(-214.9388793 4.030766723e-09 -412.0940401)
(-265.8105926 4.299800252e-09 -396.4843654)
(-0.05500342805 4.139230979e-09 -264.7108195)
(-44.98063905 6.784587632e-08 -284.721531)
(-113.5523666 3.214053123e-09 -299.9375614)
(-135.0774385 -5.365745374e-10 -324.4863851)
(-161.2597595 -1.128260664e-09 -377.0549317)
(-82.3724638 -1.115034157e-09 379.1172289)
(-91.45814991 1.429714499e-09 243.268425)
(-95.90928178 -2.700266523e-10 98.74666543)
(-109.371705 1.195826215e-11 -55.90825362)
(-115.0407519 7.027305417e-10 -220.2903209)
(-23.02876786 -3.69823613e-09 694.9928797)
(-12.33787256 3.903417436e-08 575.5974239)
(6.533522544 -2.86028179e-09 354.0177667)
(-11.35403711 -1.533259207e-09 64.90182357)
(31.62322506 -6.197772739e-10 -196.1632022)
(47.008504 1.976880692e-09 193.6361464)
(42.37463794 -8.265768927e-09 167.265511)
(21.409635 1.407786168e-08 43.12831707)
(40.85290804 -5.925665169e-09 -122.4749492)
(57.12497709 -2.976434463e-10 -287.9190422)
(22.45368079 -9.879912774e-10 -91.12255764)
(13.49229116 -1.46197988e-09 -87.6347353)
(14.14035864 -8.077970366e-09 -136.4863233)
(39.65094906 -4.516774689e-10 -219.4272401)
(-22.52094256 9.032143517e-10 -338.2350813)
(5.816538775 1.073797414e-08 -303.1730675)
(10.47592944 -2.028480374e-08 -278.5510593)
(10.46590872 6.202168484e-09 -296.4759887)
(28.19892036 1.778202498e-09 -344.0525002)
(-28.32087255 1.961329165e-10 -389.3482844)
(-6.797194017 5.167590241e-10 -425.2573996)
(7.160738896 7.031009934e-10 -401.3019765)
(3.026102385 2.738351338e-10 -393.4392258)
(14.47503782 -5.68003339e-11 -405.5766215)
(8.644801937 5.474426551e-11 -423.2976803)
(-13.64504354 -3.819096187e-09 -443.5917488)
(1.221295176 -4.076248567e-08 -417.8770021)
(4.601806629 -7.301601271e-10 -412.3291001)
(-3.745777309 1.016170897e-09 -410.6268454)
(43.1650724 2.080632596e-09 -406.1478245)
(-17.1450974 -8.732560663e-08 -409.5445343)
(-9.410916087 -7.616229995e-09 -412.3779683)
(16.80383722 2.14431545e-09 -402.1986579)
(12.29959002 6.471519766e-10 -398.7892751)
(-10.97276338 1.14007323e-09 -391.0802925)
(21.60215446 1.17439685e-08 -347.5624598)
(-0.7295627411 -5.678867532e-08 -331.2880398)
(-1.704562982 -2.61686561e-08 -317.7952797)
(-6.233410683 -3.130830618e-09 -313.1217882)
(28.90048008 2.864377364e-09 -311.4623073)
(-7.196888186 5.981933048e-10 -262.3939236)
(-8.690189686 1.487579223e-09 -254.1701668)
(-2.166641899 1.539623085e-09 -249.6686015)
(-1.104012402 7.208265519e-10 -244.2742398)
(-54.98605126 1.420997158e-09 -235.5616056)
(-10.85989618 9.316650537e-09 -171.8638538)
(-9.339217676 -1.653261112e-08 -172.5188154)
(-0.2381334764 3.21394939e-09 -167.9489083)
(-5.096154188 -2.763404043e-10 -165.9061935)
(-25.03025846 4.070729221e-10 -157.419901)
(10.98370671 1.861070812e-08 -100.7836515)
(-2.157754485 -4.609795203e-08 -98.33900088)
(-5.965235914 1.050711955e-08 -98.33981627)
(-0.2714364279 8.052861002e-10 -94.34767786)
(-28.49107216 -1.221163129e-09 -96.82558141)
(14.27184717 1.484187616e-10 -42.70317107)
(-1.089839808 8.65619257e-10 -49.29986438)
(-4.742153824 2.27332073e-10 -47.57291234)
(3.940575255 -7.533102325e-10 -43.24781959)
(-27.27884457 -4.840070162e-09 -47.22896182)
(12.57822488 2.289239929e-08 -14.57207741)
(-3.583570085 1.546267864e-09 -16.81827742)
(4.517050593 -1.360340199e-10 -14.3303937)
(-4.440487465 -9.368519283e-12 -14.45716738)
(18.19848239 2.43611728e-09 -17.22335447)
(-6.286345453 1.154999626e-10 -0.948736855)
(-4.934565844 5.906006678e-11 -0.3845450644)
(0.4646917351 4.908723879e-11 0.1601928132)
(3.202477868 -1.315718967e-10 0.06257083108)
(3.002309571 -3.866714254e-10 2.267238116)
(1.062477644 -2.44670827e-10 7.31329025)
(6.534837685 4.951772767e-11 6.130980052)
(-0.193945263 2.785369668e-10 6.969577134)
(1.458980685 4.836078507e-10 11.00534672)
(9.603704303 1.685491311e-09 8.857396798)
(-5.595976462 7.656624871e-09 6.320577784)
(4.591741465 -7.888910764e-09 7.891819526)
(4.107613327 1.233015132e-09 8.225233389)
(5.44067529 -2.780778273e-09 8.824987899)
(-2.245298652 -5.393785278e-10 9.123257675)
(-0.2947169049 1.951752416e-10 5.216125876)
(0.4940362728 1.039791027e-10 7.722241236)
(-1.14527781 -2.443942275e-10 7.428939822)
(4.015202833 -7.483254304e-11 8.216965788)
(-7.656794576 2.525339748e-11 5.325303736)
(13.76702138 -2.269046683e-09 9.072996432)
(-2.877233272 -4.905152289e-09 5.455587823)
(0.3117330808 -5.478555632e-09 5.608423104)
(-2.085272194 -2.902342362e-09 7.643907597)
(13.58751072 1.835467664e-09 5.654302045)
(4.781852518 4.64458023e-09 2.541276861)
(-4.503626384 -1.01408862e-09 4.825229005)
(3.22145124 -4.040688156e-08 5.215491181)
(-0.5622576233 -1.016750607e-08 2.666683808)
(2.256655096 -1.810853841e-09 4.875913834)
(5.412271004 1.823622547e-08 2.206435296)
(4.332261399 -1.792971442e-09 3.776845765)
(-1.240559102 9.567724816e-09 3.007391293)
(0.9807467164 -4.818393266e-10 2.173096988)
(-12.17241827 -5.458584921e-10 2.372800363)
(0.6885226054 2.249647311e-09 4.098217339)
(2.84447619 4.265189937e-09 2.583760662)
(0.7661481125 6.288833649e-09 1.567635814)
(3.89072388 2.462159426e-10 1.654900539)
(-32.23525618 3.716076273e-09 -0.1558332383)
(5.552096894 2.23801517e-11 2.09914274)
(4.456564039 1.881476165e-10 2.696349476)
(-3.098182695 -5.090484234e-11 1.662183363)
(0.667183371 3.912152251e-11 1.354732195)
(-1.64090994 -3.203904671e-10 -0.6175203046)
(-0.05331567368 -4.187615171e-09 4.580972986)
(4.477630864 2.252093743e-09 3.599317758)
(-2.060323598 9.084532989e-09 3.101289896)
(0.7691936685 1.123620787e-08 3.405714702)
(-1.880624803 -9.116487908e-09 1.302420194)
(-0.2721791499 1.313113154e-07 4.785200652)
(1.080864936 -1.254744111e-08 4.762760407)
(-0.473610656 -1.241759799e-09 3.938898617)
(-0.9621146839 -3.219723556e-11 3.110627871)
(4.992942969 7.542724965e-11 2.661486966)
(-0.5691690448 -3.2564096e-10 5.863099763)
(1.098599115 -1.122761957e-10 5.681465005)
(0.3117084011 -2.277771281e-10 5.490499333)
(0.9152717652 1.407539283e-10 5.432086147)
(-4.342233986 3.018607604e-11 5.578116902)
(8.391320664 -8.268571548e-10 7.204186591)
(4.782082344 1.300554096e-08 7.264039744)
(-2.05110618 -1.948478652e-08 7.143038951)
(-3.289751835 6.769675272e-09 6.856563831)
(14.62773836 -1.157506275e-08 7.026248598)
(1.193161851 -4.721181276e-11 8.730712887)
(1.934909952 -6.787636933e-11 8.5072294)
(0.07489149249 3.385845968e-10 8.513415459)
(2.653760044 -2.541552466e-10 8.399539048)
(-17.52023949 -2.774428894e-11 8.283850296)
(-0.1593681299 4.505087284e-10 9.398878535)
(-0.217477378 1.191689044e-09 9.778089861)
(-0.580434682 1.419249142e-09 9.677376034)
(3.246413716 9.045574667e-10 9.855484601)
(-13.75661843 4.443971093e-10 8.574583244)
(-2.606907633 7.054744964e-08 10.36473292)
(-1.339753565 -2.402118474e-08 10.82691174)
(0.2796968267 -1.318808464e-09 11.09663398)
(-0.09747218471 -5.057076716e-09 10.83776719)
(3.659405105 -4.954151612e-10 10.9388358)
(0.08707816391 -2.265079668e-10 11.22786787)
(0.8047961962 -1.524622127e-10 11.67111902)
(-0.4835300889 -1.323976224e-10 11.97953167)
(5.656392798 1.371043257e-11 12.00943713)
(-32.26848495 2.849225711e-11 12.0422351)
(1.740663997 2.820295155e-07 12.20139671)
(0.6005996924 -1.848656823e-08 12.3335939)
(-0.1614807089 6.450011032e-09 12.50002291)
(-0.3758768931 -2.421549293e-09 12.81581784)
(2.39221565 1.599856166e-09 12.95326959)
(-3.297734553 1.454829351e-08 12.23263032)
(0.6654800107 5.642693943e-08 13.11227802)
(-0.5722857808 3.515628958e-09 13.47206337)
(-3.413113184 -2.806190233e-09 13.14752368)
(17.26551289 -5.179820525e-10 13.99838238)
(-1.531708183 -6.816339902e-10 12.92227401)
(-1.180904928 -3.230950019e-09 13.628329)
(0.5613443132 3.940926489e-08 13.66212414)
(-0.09709160097 -3.735375791e-09 13.85483189)
(1.47099339 2.60273414e-08 13.63578177)
(8.921202826 1.402120834e-11 13.05824993)
(3.353364122 -2.233959112e-11 13.91033717)
(-2.950736031 -3.362789031e-11 13.88040335)
(0.5824140257 -1.167406009e-11 14.08890101)
(-2.397075472 4.015337473e-11 14.34835309)
(-2.491051247 6.092629774e-08 13.81641498)
(1.742257987 5.806352616e-09 13.73871338)
(0.2056547587 5.367563998e-09 13.88887693)
(0.5598862727 -2.642695324e-09 14.18987135)
(-10.83338654 -5.105897856e-10 14.35528722)
(-1.205572686 -7.01505023e-09 14.06407055)
(-0.958091783 8.145389375e-09 13.79410477)
(1.000264228 3.068063262e-11 13.72060965)
(1.672374059 -2.708909172e-09 13.96223056)
(-11.78438936 2.065345491e-08 15.18537569)
(-0.6508455293 -9.378964161e-09 13.95514626)
(-0.5958219212 -6.658547433e-08 13.6685378)
(0.6419404018 -6.44591201e-09 13.72424236)
(1.906049174 6.751609755e-10 13.75625115)
(-12.86530862 3.384266273e-10 15.0106512)
(1.081228841 -1.334538812e-07 14.07781873)
(0.3026941439 2.449632364e-09 13.59580288)
(-0.01135770674 2.735599107e-09 13.62027456)
(1.894132882 4.857595003e-10 13.71445411)
(-11.84402553 -1.584810149e-09 14.90447265)
(-2.092070207 4.183569946e-10 13.8860633)
(-0.5596401301 1.184431109e-09 13.57160921)
(0.1179314892 -3.826667982e-08 13.59148227)
(3.049932919 -2.321360408e-09 13.69838108)
(-17.48569628 -2.292151693e-09 14.40505633)
(-0.2872311245 -4.779983382e-11 13.83439982)
(0.4781790085 -1.341954659e-10 13.77967697)
(0.002624936249 -2.431701465e-12 13.77531683)
(-1.465024648 3.026797944e-10 13.88830906)
(6.521416473 1.102989666e-09 14.32470438)
(1.116547719 1.593499449e-08 14.19234012)
(1.155509263 -2.67549997e-09 14.08102492)
(-0.3936750214 6.784118249e-09 13.9722726)
(-2.136420221 -2.734072272e-09 14.12001106)
(10.14744463 1.712141059e-08 14.86775228)
(1.77636865 -3.763444604e-11 14.4490082)
(0.4065090558 1.62215552e-10 14.34223087)
(-1.002998306 -1.241472049e-10 14.37302205)
(-1.243925357 -1.452490995e-09 14.51011743)
(8.931731979 2.045627994e-08 15.62862691)
(0.1412418585 -5.52823724e-10 14.38667637)
(0.6764191305 -1.668492897e-09 14.44944373)
(-0.4496160222 -6.268701123e-09 14.66429893)
(-0.6862575904 1.05861732e-09 14.73405451)
(2.897011884 -4.932684678e-09 15.62735856)
(-0.8998193899 -4.565040678e-11 14.52990586)
(-0.01529541064 -2.133669669e-10 14.54162668)
(0.9482994214 -8.169643065e-10 14.88324701)
(-0.1177578474 -1.108878631e-09 14.90464286)
(-2.376021449 -1.632586147e-09 15.32672374)
(-0.09158779307 4.37843752e-11 14.02467865)
(0.837498257 -2.798086362e-11 14.47690029)
(-0.6238631277 1.010157372e-10 14.59723725)
(0.4738791749 1.14527157e-10 14.65860101)
(-2.868850526 1.335843488e-10 15.00094035)
(1.578486524 1.391964433e-08 14.10963463)
(0.8123259199 -2.58288287e-09 14.3739489)
(-0.3518604853 7.141696954e-09 14.48124043)
(0.4420810739 -9.096439251e-10 14.7168568)
(-3.273828744 -3.88367188e-10 14.85667804)
(1.213357806 1.04055381e-08 12.82089309)
(0.7657593266 -3.750556251e-08 13.09051968)
(-0.6397297111 1.557836658e-09 13.23428787)
(-0.3868666412 5.265708972e-09 13.41416486)
(2.710651916 1.163512879e-09 13.5526886)
(1.183069569 -7.120617985e-09 12.36238886)
(0.7779499904 8.016084557e-10 12.73614)
(-0.2124362241 -2.522028867e-09 12.9487806)
(0.006185442019 4.649283091e-09 13.2323063)
(1.746044543 -6.674002634e-10 13.43825578)
(0.2139409897 -5.534420445e-11 7.466547391)
(0.1332783951 -2.669178905e-10 7.487433802)
(0.2045495882 7.521618052e-10 7.55022727)
(0.2071156917 -4.638227665e-11 7.798843178)
(0.6741500589 2.811978188e-10 7.759653548)
(-7298.874582 -3.194868447e-10 -469.2351269)
(-598.2050173 -1.830673989e-08 247.2073325)
(-490.2922142 1.637432068e-12 347.743735)
(262.888208 8.823457322e-10 189.2604092)
(-288.5125724 7.659905843e-10 -31.09963906)
(134.828556 -1.444704561e-09 22.91024152)
(-38.87121591 9.386185433e-09 107.9883551)
(42.21945436 -2.524127342e-09 69.24503141)
(70.85571978 1.057727591e-10 12.90827439)
(-58.48163032 2.648973137e-10 0.8203231147)
(-107.003312 2.889011755e-09 2.095124831)
(37.32433695 2.364965447e-10 -32.50400732)
(125.5957332 -3.823932715e-09 -47.32275735)
(169.9254568 -1.128392091e-09 -126.293985)
(152.6836399 -1.996789275e-09 -172.0838992)
(32.12503604 6.081615694e-09 -198.5179035)
(-45.03889188 -7.469012775e-11 23.25669423)
(-12.80301615 4.962854652e-10 -133.0970891)
(-281.388628 1.878302808e-09 -322.9872221)
(-195.9327254 -7.465791585e-10 -464.6058372)
(-95.81659105 -1.703573614e-09 -256.5916767)
(23.47614056 -5.890973036e-10 -375.8362979)
(34.4759598 -7.35287807e-10 -414.5020612)
(-3.999592456 3.156766926e-09 -386.6630268)
(-3.485615001 -4.348338931e-09 -485.9836354)
(18.40769998 -5.193213654e-10 -438.8027629)
(23.81690758 6.11942426e-09 -445.0915243)
(-3.922325548 -2.036520836e-09 -380.2317932)
(10.69926807 6.737711464e-09 -296.194466)
(-28.22596117 1.783550215e-09 -247.5470102)
(-13.00680263 1.806894018e-10 -169.094378)
(-17.15417307 -6.247858906e-09 -72.89365856)
(-13.70972909 -1.454780025e-09 -27.88766853)
(11.12282106 -1.395813535e-08 3.757343267)
(1.890148845 -2.818370718e-10 2.474702413)
(9.773384947 1.910205911e-09 14.20088711)
(-1.086324192 2.215479983e-09 9.648294585)
(-1.613359122 9.499570338e-11 14.51149268)
(6.288497194 3.151385512e-09 0.6390177395)
(3.327255389 -3.604872164e-09 -1.074851748)
(-5.258008716 -3.237780034e-10 0.3632615674)
(-14.16171496 -1.98659144e-08 4.886155096)
(-2.046696405 -3.831159656e-10 6.911489058)
(-2.886150162 1.622305444e-10 8.631088228)
(2.697639812 1.7827738e-10 5.805186683)
(-1.827430091 -8.180334408e-12 3.28680813)
(6.497085386 -3.735523884e-09 5.728558905)
(-8.103049564 5.654762726e-11 8.684887637)
(-6.979571726 2.757358526e-10 13.78715961)
(1.38665017 -2.085873543e-10 11.1869609)
(-15.06678201 7.723450901e-11 11.67364076)
(1.105960764 -4.032334571e-09 11.92323703)
(7.565114851 -3.623583777e-10 11.78220126)
(0.5958404859 -2.500463139e-09 15.3495387)
(-1.985214475 2.004324988e-10 13.81027742)
(-4.750273062 -3.060851895e-10 14.4358614)
(-4.737256276 -9.732755158e-09 11.4772186)
(-5.368499605 2.922215808e-10 11.61641102)
(-5.371406681 -7.890363716e-10 11.62596022)
(-7.956133373 -2.927792311e-09 13.13184221)
(3.168622785 -7.498715621e-10 14.1055006)
(4.704805654 -3.645937591e-09 13.38817016)
(3.81853582 -4.714427494e-09 11.97851804)
(1.329997378 -1.653334599e-09 12.645819)
(-0.3445338065 -5.319272554e-10 14.67301378)
(-1.812009769 1.077228965e-09 14.71995683)
(-1.372112267 1.334110394e-10 14.78797699)
(1.014409747 3.147838837e-10 13.98779059)
(0.9003920039 1.275039377e-09 13.62755305)
(0.9797295248 -5.940803774e-10 7.864573803)
(-1406.181754 -8.948004666e-10 138.0405606)
(107.6685808 5.234381967e-10 48.16531921)
(57.08793472 -5.677284841e-10 28.18804034)
(-90.96175771 5.662826379e-10 -253.8071157)
(11.50954824 -1.427212416e-10 216.7323017)
(34.31702748 -6.395871173e-10 37.93100214)
(-403.1553795 -5.582439716e-09 -13.67163724)
(-276.63509 -1.077304443e-09 113.6037446)
(511.8916744 2.626582342e-10 -15.58019252)
(-2.421757457 3.679495163e-10 -7.243077641)
(333.387085 2.478819914e-10 133.45316)
(-203.5166968 3.724006516e-10 38.18841713)
(-29.47136903 -1.898676135e-10 146.164075)
(-2.691207042 1.291005088e-09 -28.00929738)
(-151.1394856 -4.46236494e-09 19.92584013)
(124.6994387 9.804579746e-10 -4.26717919)
(-239.3900048 1.035806698e-09 -86.77202628)
(-55.55259804 8.455072424e-10 19.49880553)
(412.3914372 4.354810477e-10 -53.04100469)
(-17.96381185 4.423823418e-10 -8.057739753)
(63.46055449 -2.458473451e-08 -6.311148488)
(244.9359269 -1.438784768e-09 9.235069206)
(-163.646838 -7.508120328e-10 -26.98778419)
(-63.66626722 2.141641317e-09 82.95837864)
(-9.055149262 -1.14442512e-09 6.313703999)
(-49.5806143 2.663664451e-08 33.71179738)
(-13.11768166 -2.615882055e-08 20.09577124)
(72.68100844 1.169351754e-08 13.62645172)
(-9.417761392 1.32941057e-09 23.00806457)
(-108.4843246 7.543012889e-10 16.37234633)
(-60.57807689 -1.454271716e-08 68.32262075)
(29.27868487 3.058371154e-09 51.19781815)
(-33.50765068 1.492844719e-09 26.40046059)
(-35.44843304 -1.26178094e-08 11.97110962)
(-8.62631825 1.128292422e-08 -16.7636824)
(-69.23949243 -2.17068617e-09 86.81851282)
(45.95511905 8.199454963e-10 30.95181752)
(6.132707494 3.486617317e-09 8.212799132)
(-33.80593264 -1.173970299e-09 -2.923337304)
(32.90553695 1.807086713e-10 -20.62811419)
(-218.8277035 2.697527288e-08 19.31208168)
(15.54856431 1.948230607e-09 29.03015805)
(28.68797039 6.399702331e-10 -18.07333676)
(47.14148848 -1.326751314e-08 6.583952839)
(-37.80087821 -6.231942155e-09 3.403795751)
(39.80240378 2.36452929e-09 -28.93498956)
(48.33487784 4.806495288e-10 -36.76622601)
(30.89856603 1.58366282e-10 -27.95913686)
(42.62929319 2.620099028e-11 -43.66998912)
(-2.122144935 3.409605937e-12 8.026831016)
(-40.43481195 1.625088518e-09 -17.4504217)
(-16.22935217 4.629209081e-10 -60.71677849)
(-55.79110199 1.794940648e-09 -50.38428202)