/*--------------------------------*- C++ -*----------------------------------*\
  =========                 |
  \\      /  F ield         | OpenFOAM: The Open Source CFD Toolbox
   \\    /   O peration     | Website:  https://openfoam.org
    \\  /    A nd           | Version:  10
     \\/     M anipulation  |
\*---------------------------------------------------------------------------*/
FoamFile
{
    format      ascii;
    class       volScalarField;
    location    "0.02498436188";
    object      epsilon;
}
// * * * * * * * * * * * * * * * * * * * * * * * * * * * * * * * * * * * * * //

dimensions      [0 2 -3 0 0 0 0];

internalField   nonuniform List<scalar> 
5170
(
6422.159701
6432.52724
6534.306195
7922.694985
34069.68255
5472.343976
5482.503207
5645.307921
9099.66543
52684.42492
4741.506618
4789.533209
5291.267686
10745.54667
77191.08156
4154.445306
4257.849532
5083.280633
12219.37656
94816.13476
3676.358268
3843.03327
4935.49812
13763.64981
115599.8514
3310.727612
3495.972796
4819.237797
15034.68307
128612.7525
2997.729278
3191.565489
4750.344009
15940.8679
134950.5156
2727.635763
2988.173758
4616.36535
16661.26686
138730.9649
2507.957133
2806.986414
4511.423814
17233.29322
140541.0785
2321.578354
2646.409192
4421.627915
18063.47312
140903.9208
2166.897862
2504.095464
4332.249957
19099.74072
140306.1778
2028.434327
2379.841279
4289.400614
20083.82809
139149.4652
1901.032786
2274.957185
4315.066806
21237.31205
137697.8253
1794.743721
2186.573874
4413.199754
22704.9555
136120.5468
1688.550322
2118.490004
4558.22825
24211.48495
134519.6213
1617.832195
2063.24887
4810.529723
26016.80111
132991.49
1527.957466
2028.793018
5097.75368
27781.13971
131625.078
1485.621878
2014.76371
5554.407127
29930.70238
130496.4811
1406.015219
2054.741724
6137.864973
32525.40883
129417.9925
1406.539189
2231.453791
7513.720358
39758.96495
118266.9635
1079.471751
268.7942417
181.897903
348.8230615
1140.911051
517.2614187
257.1191546
185.7118922
291.3750572
440.834843
282.0817933
220.8166516
175.3375162
201.0677551
194.8169911
185.7794911
162.8702367
155.4572211
205.1141313
130.2998277
148.3723751
143.5889504
142.2594025
252.5543844
131.566522
125.7399099
134.1356582
145.6465283
358.6136703
158.5858808
119.0483953
141.4924583
164.7094443
592.1974313
228.7198171
119.6926562
158.1084955
211.7537591
1026.995757
343.0323873
125.1997311
180.3242101
276.0515091
1464.975396
471.5583847
132.5423523
203.1181832
345.0729102
1829.113391
592.4367164
140.1788708
224.1402977
415.5843811
2158.9549
709.5001291
148.2805786
244.479607
482.1918944
2433.71469
813.7113466
155.2165295
259.8209283
544.0517511
2673.045743
908.4757065
162.7327984
274.042301
598.0348718
2823.981732
983.0821045
169.6122164
285.1202794
653.2362326
3007.021805
1071.522863
178.1268194
297.9419979
708.2412924
3215.001475
1155.146256
186.3355651
305.432052
759.3586982
3272.762228
1187.424851
203.965683
315.1475481
819.2904616
3376.190048
1236.081746
242.9700882
327.5116349
910.7540794
3424.815946
1278.974709
2180.999565
676.3227469
1368.617178
3553.183351
1306.478328
1384.874352
2305.857777
8348.345588
37078.88654
73811.72295
1375.066295
2387.118115
9049.352293
35037.07116
63391.04929
1374.436955
2509.887556
9734.864518
33872.07799
63912.26305
1388.029327
2681.876087
10602.74607
33933.10545
65902.8505
1419.833999
2895.311195
11320.38262
34425.71407
65928.22581
1482.897302
3209.976871
12314.77153
35639.18769
65007.76829
1589.426001
3703.62832
13847.35903
36992.60438
63109.82498
1755.586602
4380.082607
15633.37221
38066.47982
61479.60908
2001.913737
5284.680583
17571.66257
38723.59874
59907.63789
2341.539394
6413.306032
19334.61411
38877.47615
58153.67769
2818.580211
7794.068353
21234.28389
38980.07041
56585.40933
3511.783563
9527.308176
22985.49056
38917.28607
54737.47004
4894.786747
11662.38193
24429.85076
38822.71927
53159.01686
6662.586702
13538.05228
25495.67815
38651.87223
51742.82183
9189.822473
15468.70411
26254.52959
38198.30454
50019.78002
11316.88933
16752.7059
26409.84547
37391.03178
48474.47381
13345.95962
18041.73374
26720.60777
36892.10266
47202.07166
15898.69162
19781.56861
27136.25282
36095.09324
45467.14178
17706.98973
20904.21001
27408.91383
35772.10985
44974.94963
19350.31349
22400.63667
28585.70716
37012.2483
46918.76879
23692.72333
26884.43542
33593.04112
43553.32795
56170.57275
37412.13378
41328.57126
49942.2129
61911.79757
75553.04848
60965.12431
63476.74362
68810.31813
76050.76156
83937.72492
67209.74913
68551.9681
71455.61944
75536.94781
80010.42052
63434.68134
64116.7644
65290.47344
66283.37231
66537.03756
49400.48457
49147.06183
48657.99902
48037.23368
47300.17882
33338.97966
33236.37671
32984.4111
32573.04602
31982.51268
22182.44845
22118.18701
21951.18003
21676.43914
21287.75546
14830.2747
14787.74335
14683.5478
14515.2591
14281.3906
10112.59659
10088.85957
10028.57593
9931.637524
9797.710732
7095.694024
7081.702513
7047.565131
6992.956016
6917.691142
5121.940293
5114.783017
5096.018319
5065.752783
5023.788431
3796.109079
3791.847633
3781.381255
3764.485725
3740.959679
2880.872198
2878.909223
2873.236103
2863.890903
2850.693745
2241.430949
2240.165957
2236.961234
2231.671114
2224.134442
1787.851825
1787.306816
1785.522588
1782.496469
1778.09951
1461.475435
1461.048626
1459.948565
1458.093381
1455.37362
1219.587383
1219.393124
1218.708239
1217.516717
1215.738003
1034.832502
1034.635035
1034.13799
1033.298722
1032.046275
888.5394066
888.438598
888.0850443
887.478
886.5620495
769.7107405
769.5958787
769.3151276
768.8468146
768.1463372
670.8545008
670.795103
670.5855971
670.22928
669.6912183
587.5944078
587.5235943
587.3528376
587.0698918
586.6468474
516.5643947
516.529214
516.4010117
516.1833063
515.8544802
455.6699137
455.6263238
455.5213863
455.347698
455.0877978
403.0653664
403.044781
402.9665607
402.8335154
402.6315172
357.5383846
357.5119003
357.4479124
357.3418364
357.1822523
317.926259
317.9133711
317.8660782
317.7852962
317.6617096
283.4073731
283.3914033
283.3527122
283.2883209
283.1907652
253.19892
253.1921439
253.1640493
253.1155265
253.0403677
226.7031895
226.6938944
226.6709028
226.6323137
226.5731942
203.3787207
203.3756426
203.3594659
203.3309774
203.2859971
182.8202459
182.815228
182.8021695
182.779863
182.744928
164.6362517
164.635323
164.6265218
164.6104837
164.5843433
148.5415676
148.5390439
148.5319816
148.5195958
148.4995633
134.2449208
134.2451664
134.2407881
134.232277
134.2176765
121.538111
121.537045
121.5335932
121.5272126
121.5162867
110.1987032
110.1995471
110.197768
110.1937761
110.1861913
100.0790584
100.0788037
100.0774902
100.0747193
100.0693666
91.00720924
91.00832635
91.00808078
91.00679456
91.00350802
82.89310028
82.89324531
82.89315701
82.89251264
82.89051843
75.57927479
75.58046432
75.58105282
75.58130293
75.58053136
69.03916337
69.03956051
69.04015807
69.04072309
69.04069585
63.08423478
63.08538015
63.08638792
63.0874612
63.08811872
57.81703717
57.81754264
57.81845923
57.81961949
57.82062354
52.87854291
52.87958815
52.88075369
52.88219752
52.88357883
48.74341755
48.7438935
48.74478939
48.74599562
48.74722455
44.36140489
44.36248537
44.36398957
44.366021
44.36831466
41.62969781
41.63006626
41.63067799
41.63144723
41.63212252
36.68477568
36.68522377
36.68604882
36.68726341
36.68889767
21006.56977
72047.11873
86202.32086
86181.29436
84151.64404
81399.83397
78232.87528
75360.1696
72581.30567
69710.24589
67125.30675
64275.27272
61862.09771
59720.90409
57315.26405
55354.31809
53652.53241
51501.40293
51211.29624
54021.13148
65768.54904
84103.74787
88863.08893
82434.80166
66205.94911
46684.6941
31511.43259
20986.60452
14103.15067
9696.293731
6860.873564
4992.129494
3723.263341
2840.759269
2218.433043
1774.704357
1453.211427
1214.265674
1030.975396
885.7545151
767.5196187
669.2024728
586.2618072
515.5527032
454.8498468
402.445268
357.0355685
317.5470422
283.1004671
252.9701863
226.5179724
203.2435734
182.7120569
164.5592895
148.4803315
134.2032911
121.5054802
110.1783879
100.0637866
90.99977638
82.88815286
75.57926377
69.04021927
63.08824495
57.82115009
52.88443577
48.74804519
44.36999886
41.63250993
36.69045569
56921.21307
13566.18697
3510.506191
2995.324852
691.7002052
101111.6168
56844.82611
14594.00268
4174.072724
835.135882
112284.4783
93153.00014
43200.60217
12617.39971
2442.897307
110406.4414
105803.1115
74964.6141
34513.59968
8854.543984
106448.307
111380.5117
93136.34219
53970.24869
21292.64859
102736.2031
112723.5825
101833.4051
68653.86834
33903.14512
97977.93465
111176.266
104476.2389
78546.01827
44984.68984
93575.34969
107567.5936
104280.5323
84893.63127
54241.72327
89323.17578
103419.1566
103151.6554
89274.82154
62400.5619
85049.17871
99075.72696
101281.659
91178.23099
68537.5538
81147.61149
94711.94347
98316.9442
91271.2567
72984.69699
77038.41227
90075.20469
94811.90576
90660.51617
76614.767
73527.29444
86034.84099
91629.42186
89570.80585
79236.87804
70487.60221
82603.46956
88807.83607
88336.03847
80784.92455
67212.49542
78816.43915
85649.07727
86931.64388
81723.52094
64683.75973
75894.57621
83062.10287
85518.09412
82601.64781
62501.05646
73539.62677
81010.87198
84544.98104
83598.1935
59835.85629
70924.32564
79299.43777
84494.46048
85643.32804
59873.01006
72090.10901
82586.35556
90757.37973
94938.0502
64047.31281
80494.50461
97089.62009
108161.1822
106104.9075
78989.65474
99996.43929
113766.1714
115221.5734
103758.3364
95233.04182
108203.3315
112919.0394
107718.3884
90415.49218
95414.50189
102633.9522
101543.3559
90345.74928
73808.49111
85465.3961
85211.06999
79665.6647
69841.77626
57601.82393
65929.74158
63528.50806
58546.96829
51452.04105
43212.55141
46048.16878
43857.69703
40359.71564
35836.10974
30760.45212
31017.31591
29534.89289
27348.42758
24626.65477
21604.65377
20671.39095
19768.97269
18476.99414
16889.66434
15124.37625
13917.4907
13393.65176
12649.91021
11735.95149
10710.2644
9591.507188
9294.227942
8870.131341
8344.259027
7745.413213
6803.06044
6635.501616
6393.019541
6087.691831
5733.455356
4960.896463
4866.31754
4726.17649
4546.106047
4332.728753
3706.648738
3652.851197
3570.624287
3462.491843
3331.508222
2831.972523
2800.972339
2751.879993
2685.73606
2603.84492
2213.586377
2195.206411
2165.198116
2123.860631
2071.622503
1771.760049
1760.336037
1741.373724
1714.796078
1680.597346
1451.156102
1443.585876
1431.059596
1413.325921
1390.177371
1212.677202
1207.337719
1198.655287
1186.3206
1170.05349
1029.67554
1025.711582
1019.419309
1010.492332
998.6431973
884.6867933
881.6559008
876.9454241
870.2797739
861.395295
766.6444214
764.2837384
760.6752078
755.5823503
748.7756386
668.4969403
666.6470514
663.8470112
659.8994239
654.6104416
585.6953442
584.2384622
582.0464169
578.9564082
574.8068967
515.1041627
513.9577983
512.2349187
509.8024961
506.5270301
454.4947495
453.5908625
452.2317557
450.3088076
447.7118633
402.1670947
401.4560481
400.3828453
398.859075
396.7940211
356.8165799
356.2558136
355.406404
354.1959915
352.5496603
317.3762763
316.9350073
316.2625172
315.2995727
313.9843196
282.9663941
282.6181892
282.084636
281.3169565
280.2639518
252.8661597
252.5924971
252.1694648
251.556952
250.7125605
226.4368371
226.2212462
225.8853231
225.3958623
224.7176291
203.1814525
203.0130055
202.7470811
202.3562683
201.8113033
182.6643116
182.5326177
182.3220446
182.0098022
181.5714874
164.5232782
164.4209802
164.2546256
164.0052617
163.6525355
148.4530666
148.3736211
148.2422436
148.0430757
147.7590712
134.1832116
134.1221149
134.0187432
133.8598427
133.6311362
121.4907359
121.4438994
121.3627085
121.2360288
121.0518589
110.1680701
110.1326888
110.0692314
109.9683672
109.8200146
100.0567868
100.0304202
99.98118001
99.90121599
99.78202886
90.99547652
90.97625505
90.9383004
90.87502009
90.77925037
82.88578999
82.87216822
82.84329603
82.79361092
82.71704694
75.5784457
75.56913326
75.5473116
75.50829397
75.44695544
69.04053798
69.03467853
69.0186572
68.9884938
68.93984039
63.08937903
63.0860043
63.07429207
63.05087569
63.01206999
57.82281414
57.82137677
57.81318614
57.79536234
57.76475582
52.88649052
52.88647346
52.88094158
52.86745573
52.84333447
48.75000839
48.75040484
48.74618245
48.73526446
48.71536649
44.37312723
44.37619121
44.37570782
44.36988411
44.35672131
41.63374311
41.6330668
41.62823937
41.61773487
41.60003286
36.69340754
36.69778943
36.70179836
36.70525436
36.70779727
14.67609877
0.3184934092
0.02033331741
0.003842942039
0.001757934274
0.001390666282
0.001282503178
0.00123991587
0.001218471396
0.001205887364
0.001198193019
0.001194403321
0.001193514272
0.001195855076
0.001201051989
0.001205845274
0.001209769174
0.001213099162
0.001215912349
0.001217848964
0.00121856409
0.001218518666
0.001217975103
0.001216922815
0.001215440741
0.001213786505
0.001211974184
0.001209732988
0.001207248424
0.001204885543
0.001202601539
0.001200249249
0.001197723523
0.001194940633
0.001192313897
0.001189935518
0.001187641485
0.001185426554
0.001183251529
0.001181319792
0.001179432141
0.001177760067
0.001176181615
0.001174769636
0.001173417765
0.001172185131
0.001171056696
0.001170091951
0.001169214589
0.001168520659
0.00116790812
0.001167484785
0.001167181373
0.001166934173
0.001166717646
0.001166654521
0.001174670745
0.001248604407
0.002045587609
0.02191291467
35.18813575
0.7846630847
0.05500975043
0.01043270316
0.003612815459
0.002180187832
0.00171598982
0.001522363504
0.001418462006
0.001354579053
0.001313112407
0.001290973972
0.001279156426
0.001273417827
0.001267510876
0.001262346597
0.001257199097
0.0012518189
0.001245892196
0.001239609421
0.001233699307
0.001228065664
0.001222717889
0.001217644548
0.001212941256
0.001208562812
0.001204546896
0.001200745092
0.001197103426
0.001193754817
0.001190696417
0.001187801589
0.001185031709
0.001182369797
0.001180010598
0.001177855928
0.001175859203
0.001174046005
0.001172418779
0.001170960264
0.001169632341
0.001168492029
0.001167514009
0.00116665731
0.001165914498
0.001165201009
0.001164605071
0.001164035569
0.001163562481
0.001163102249
0.001162722585
0.001162304073
0.001161898596
0.001161515627
0.001161415593
0.00116443829
0.001190884047
0.001359940814
0.00268348154
0.02098517524
146.9327638
3.619979206
0.1751055053
0.02739948167
0.009926477321
0.004888564211
0.003175745667
0.002476268567
0.002085173993
0.001835740547
0.001664548476
0.001544986696
0.001460963674
0.001399676427
0.00135575074
0.001324574219
0.001302335173
0.001284467231
0.001269085611
0.001255624363
0.001242866669
0.001231979243
0.001222847889
0.001215103112
0.001208327857
0.001202408137
0.001197251993
0.001192713538
0.001188690596
0.001185136174
0.001181987719
0.001179167555
0.001176657444
0.00117438903
0.001172357217
0.001170526081
0.001168851656
0.001167327209
0.001165955049
0.001164689934
0.001163522177
0.001162480729
0.001161533551
0.001160663689
0.001159945099
0.001159381431
0.001158918379
0.001158502185
0.001158148273
0.001157800209
0.001157499917
0.001157195442
0.001156975197
0.001156835922
0.001157731661
0.001166106813
0.001213624915
0.001473537362
0.003151205303
0.02011734921
1233.925621
68.67715462
2.255569528
0.1586769788
0.03478620723
0.01428292466
0.007641874745
0.005267637838
0.003996465847
0.003185763075
0.002620934059
0.002219582026
0.001934589477
0.001735989418
0.00160003628
0.001507202447
0.001440678547
0.001389931561
0.001350306555
0.001319041004
0.001294783984
0.001275161674
0.001258966825
0.001245384414
0.00123383732
0.001223925719
0.001215415446
0.001208055031
0.001201640534
0.001196041342
0.001191120954
0.001186777884
0.001182959503
0.00117956731
0.001176573834
0.001173935968
0.001171567016
0.001169424362
0.001167523368
0.001165777824
0.001164198371
0.001162812027
0.001161540455
0.001160313863
0.001159136154
0.001158161781
0.001157195862
0.001156317426
0.001155529715
0.00115481821
0.001154179687
0.001153576124
0.001153086032
0.001152899999
0.001154966813
0.001170395241
0.001242137361
0.001587662149
0.003537634225
0.01929894313
4383.854596
424.7669789
22.83459659
1.289638042
0.1714953992
0.04981220915
0.02096606192
0.01257534131
0.008700517527
0.00642831892
0.00490752509
0.00384178552
0.003084612308
0.002554210091
0.002192063337
0.001944947277
0.001773803234
0.001652356902
0.001563748702
0.00149642638
0.001443633221
0.001400984809
0.001365865986
0.001336607781
0.001311944832
0.001290959511
0.001273017741
0.001257578089
0.001244197296
0.001232540572
0.00122232763
0.001213369316
0.001205534773
0.001198631734
0.001192541608
0.001187195195
0.001182428456
0.001178160402
0.001174429115
0.001171261334
0.001168448334
0.001165813358
0.001163417557
0.001161179151
0.001159112743
0.001157366769
0.001155790069
0.001154322383
0.001152999822
0.001151865498
0.001150865808
0.001149964396
0.001149305152
0.001149506416
0.00115422675
0.001177619258
0.001276827059
0.001705352537
0.00386551368
0.01852736949
10213.96983
1830.463575
175.6345311
11.59005919
1.008731072
0.1903574738
0.06107841742
0.03087916554
0.01955738093
0.01365668704
0.009898340552
0.007317797314
0.005499591157
0.004220664352
0.003327945647
0.002716392652
0.002303441077
0.002025703546
0.001837486745
0.001705892935
0.00160925421
0.001534930812
0.001475833921
0.001427756513
0.001388036423
0.00135491358
0.001327005596
0.001303250193
0.001282890027
0.001265341301
0.001250114607
0.001236883251
0.001225365711
0.00121523962
0.001206304574
0.001198443853
0.001191501559
0.001185375107
0.001179989675
0.00117525513
0.001171031061
0.001167299398
0.001164101254
0.001161200574
0.001158398742
0.001155754835
0.001153529677
0.001151702764
0.001150079634
0.001148551251
0.001147250538
0.001146155321
0.001145546072
0.001146539999
0.001155096489
0.001188385104
0.001318251839
0.001827808166
0.004166399536
0.01775768319
17849.2197
4480.751368
764.4711496
81.31670659
6.947984284
0.7679726552
0.191251771
0.07390602845
0.04204625089
0.02770584162
0.01930193508
0.013748109
0.009906098717
0.007224114807
0.005364000722
0.004091097333
0.003231445643
0.002655699777
0.00227227476
0.002014892094
0.001837322569
0.001709365995
0.001613000058
0.001537735457
0.001477399924
0.001428141492
0.001387373529
0.001353248778
0.001324410995
0.001299855895
0.001278846597
0.001260771036
0.001245148241
0.001231561124
0.001219699527
0.001209328579
0.00120025677
0.001192317978
0.001185349984
0.001179217439
0.001173755819
0.001168935915
0.001164840127
0.001161256511
0.001158031368
0.001154960697
0.001152118112
0.001149635033
0.001147566024
0.001145797057
0.001144338589
0.00114306864
0.001142619087
0.001144995266
0.001157644111
0.001203695143
0.001369930128
0.001956149097
0.004447043215
0.01706210321
25358.90014
8548.017986
2065.827797
372.3362653
46.68444929
4.293455831
0.5797725694
0.1752960724
0.08241083096
0.05020634709
0.03377530814
0.02357248357
0.01668131104
0.01189460843
0.008563720916
0.00626970736
0.004708639384
0.003656414103
0.002955751328
0.002490015674
0.002176319753
0.001959544069
0.001804033623
0.001687636366
0.001597359629
0.001525424541
0.001467005833
0.001418891016
0.001378796074
0.001345090696
0.001316538434
0.001292194523
0.001271328276
0.001253329616
0.001237750592
0.001224242121
0.001212513688
0.001202300536
0.001193371328
0.001185526344
0.001178592426
0.001172463176
0.001166987126
0.001162312188
0.001158446223
0.001155014967
0.001151854199
0.001148865515
0.001146130632
0.001143741988
0.001141906453
0.001140512139
0.001140566667
0.00114526438
0.001162890207
0.001225899059
0.001430918443
0.002095681077
0.004708458892
0.01645647063
33176.1703
13318.21855
4278.069646
1110.051372
230.2604526
26.98283376
2.251251871
0.4079263324
0.15129315
0.08252090615
0.05325932351
0.03663136445
0.02576315122
0.01826847387
0.013016987
0.009355305117
0.00682942622
0.005108328165
0.003949981816
0.003175999558
0.002657647977
0.002306237479
0.002061874378
0.001885638635
0.001753497994
0.001650985812
0.001569304666
0.001502974259
0.0014483791
0.001402942513
0.001364798691
0.001332533339
0.001305071954
0.001281572081
0.001261385755
0.001243989267
0.001228935192
0.001215872033
0.001204484886
0.00119454698
0.001185834303
0.001178194205
0.001171482522
0.001165478789
0.001160307459
0.001155945198
0.001152235445
0.001148923099
0.001145890286
0.001143063017
0.001140758936
0.00113933144
0.00114029393
0.001146797338
0.00117127542
0.001252337598
0.001491966752
0.00222758391
0.004952572308
0.01554172487
40586.46195
18708.9401
7260.688643
2426.974971
670.922932
129.4292947
10.879357
1.040755068
0.2789540185
0.1294815142
0.07887668104
0.05317604009
0.03723531322
0.02640901412
0.0188123546
0.01345287837
0.009699861991
0.007102753246
0.005328875697
0.004129654724
0.003322191252
0.002776708288
0.002403643377
0.002141902533
0.001951539186
0.001807892827
0.001695935848
0.001606495484
0.001533786212
0.001473879973
0.00142402326
0.001382185913
0.001346835507
0.001316765972
0.001291032442
0.001268903795
0.001249805943
0.001233288012
0.00121897937
0.001206531832
0.001195693493
0.001186213528
0.001177945015
0.001170697995
0.001164356802
0.001158688347
0.001153809786
0.001149706676
0.001146232774
0.001143151031
0.001140696716
0.001139368841
0.001141162442
0.001150129723
0.001183375099
0.001281139724
0.001552691623
0.002347929135
0.005151804654
0.01484868401
47508.77811
24736.47296
11080.10434
4419.212474
1545.272366
376.2382955
42.94397552
3.208764887
0.5341597801
0.1986727507
0.1108976345
0.07273136311
0.05069492903
0.0360865089
0.02584120369
0.01853777918
0.01334728228
0.009695748818
0.007155939146
0.005409348819
0.004218114635
0.003408018113
0.002855491123
0.00247318864
0.002201471814
0.002001881727
0.001850287294
0.00173147964
0.001636332089
0.001558775182
0.001494753389
0.001441388931
0.001396540683
0.001358604282
0.001326301734
0.001298685351
0.001274973085
0.001254522366
0.001236853084
0.001221534924
0.001208235813
0.001196643739
0.001186545895
0.001177704109
0.001169978037
0.001163192979
0.001157267092
0.001151999638
0.001147594502
0.001143890013
0.001141152696
0.001139910798
0.001142900306
0.001155336593
0.001197869599
0.001312206396
0.001613466908
0.002459630881
0.005316679686
0.01437560054
53829.81815
30991.58132
15572.81192
7000.606295
2771.921756
823.6326884
126.6708789
10.31500672
1.116271656
0.30851289
0.1503125213
0.09443337861
0.06518561712
0.04658310906
0.03365302685
0.02436037887
0.01765050691
0.01284279929
0.009431231956
0.007037514545
0.005375369893
0.004230634725
0.003444002129
0.002899592005
0.002517467257
0.002242695834
0.00203842027
0.001881869292
0.001758602903
0.001659358646
0.001578199494
0.001511001185
0.001454899088
0.001407660804
0.001367677579
0.001333640082
0.00130455519
0.001279578934
0.001258054378
0.001239454072
0.001223333734
0.001209317283
0.001197122194
0.001186442286
0.00117718742
0.001169101326
0.001162070323
0.001155871558
0.001150558276
0.001145914577
0.001142672416
0.001141615759
0.001146130386
0.001163432424
0.001214999001
0.001345864375
0.001675866808
0.002569029127
0.005462684862
0.01386385686
59370.61189
37122.27665
20418.82006
10059.90452
4357.683194
1474.84215
281.4525171
28.12222791
2.556366239
0.5005925032
0.203578486
0.1194485855
0.0806620352
0.05750417035
0.04180396875
0.03054564742
0.02233511716
0.01635975562
0.0120404126
0.008953654835
0.006770747018
0.005240806082
0.004174445114
0.003430838167
0.002908958086
0.002536904317
0.002265027647
0.002060499213
0.001902128199
0.001776527345
0.001674964145
0.001591632634
0.001522452672
0.001464488736
0.001415611903
0.001374181717
0.00133892194
0.00130876064
0.001282845736
0.001260498948
0.001241148147
0.001224333334
0.001209761525
0.001197070779
0.001186109153
0.001176488878
0.001168175766
0.001160858892
0.001154619819
0.001149276651
0.00114577339
0.001145052964
0.001151147268
0.001173756003
0.001234644325
0.001381938896
0.00173954054
0.002675925947
0.005592633795
0.01333446397
64040.77592
43135.87205
25760.95906
13765.04961
6382.22779
2306.85761
515.3645299
67.10893101
6.389246049
0.9064557136
0.2865349429
0.1493658295
0.09693500572
0.06837842421
0.04981484806
0.03667860743
0.02706532846
0.01999162233
0.01480554247
0.01103610473
0.008323970079
0.006392131811
0.005023806552
0.004057952731
0.003374276467
0.002886175405
0.002531949923
0.002268611776
0.002067683828
0.00191052534
0.001784858197
0.001682689609
0.001598497143
0.001528431081
0.001469662835
0.001420035918
0.00137787847
0.00134189791
0.001311065047
0.001284523515
0.001261593824
0.001241742006
0.001224593089
0.001209667458
0.00119675972
0.001185390888
0.001175595612
0.001167010119
0.001159767138
0.001153675957
0.001150022354
0.001149796697
0.001158074853
0.001186087803
0.001256579477
0.00142001782
0.001803712177
0.002778720896
0.005705115256
0.01280039462
68364.55959
49534.68781
31979.75732
18251.57694
8721.414607
3138.991333
785.6317692
135.0342571
15.91167031
1.883328631
0.4385847741
0.1898858739
0.1145743583
0.07897919025
0.05737416414
0.04247571333
0.03160639111
0.02355364438
0.01756844073
0.01315661991
0.009941156394
0.007617932731
0.005949167405
0.004754317291
0.003899264175
0.003284272206
0.002837055087
0.002506170691
0.002255664945
0.002061481948
0.001907864691
0.001784108679
0.001682936347
0.001599282438
0.001529488043
0.001470751199
0.001421023439
0.001378649206
0.001342434219
0.001311312033
0.001284530886
0.001261389352
0.001241407113
0.001224006424
0.001208953874
0.001195725646
0.001184344588
0.001174401327
0.001166092098
0.001159241742
0.001155613799
0.001156206689
0.001167376502
0.001200665486
0.001280904198
0.00146024353
0.001868859157
0.002877693727
0.005793440065
0.01227207181
72830.98604
56381.98794
38735.83527
22858.26476
10624.30612
3610.057923
976.8568671
220.5536717
36.6391713
4.417935727
0.7644331625
0.2616538383
0.1376069112
0.09003220431
0.0644389964
0.04773204468
0.03576304741
0.02686399245
0.02017528202
0.01519944301
0.01153181531
0.008847614022
0.006897002903
0.005483235002
0.004459220131
0.003715647409
0.003171136183
0.002767155747
0.002462162593
0.002227243151
0.002042735286
0.001895155698
0.001775269968
0.001676609725
0.001594661874
0.001525948524
0.001467918327
0.001418647827
0.001376644112
0.001340614198
0.001309695456
0.001283007934
0.001259959141
0.001239918526
0.001222589587
0.00120741839
0.00119438486
0.001182979265
0.001173526672
0.001165956524
0.001162431225
0.001164116528
0.001178396731
0.001217326586
0.001307444687
0.00150247068
0.001935075368
0.002974355079
0.005865441346
0.01175832608
77090.52496
62815.20209
44432.81753
25425.84033
10822.12231
3510.875271
1049.040545
315.4940667
72.79921909
11.08548943
1.602254486
0.419933179
0.1784300849
0.1044954304
0.07178455923
0.05266364625
0.03955321658
0.02989889359
0.02261746898
0.01714469736
0.01306530784
0.01005228812
0.007839453117
0.006219438328
0.00503438579
0.004165200467
0.003523755059
0.003045560794
0.002683740516
0.002405597823
0.002187937467
0.002014495127
0.001874333617
0.001759507524
0.001664454112
0.001585034771
0.001518213614
0.00146162066
0.001413435406
0.00137222462
0.001336926575
0.001306425778
0.001280141464
0.00125729834
0.001237576928
0.00122035461
0.001205560769
0.001192638949
0.001182026918
0.001173894578
0.001170590915
0.001173626156
0.001191260605
0.001236148362
0.001336154721
0.001546199624
0.002000607843
0.003062521282
0.005904596213
0.01125660028
81653.10235
68374.37985
46245.70656
23875.68418
8954.570168
2927.070015
1055.811274
404.2234814
126.9876831
27.3485489
4.355631148
0.8528410719
0.2791687394
0.1313778997
0.08152935546
0.05782719344
0.04320820998
0.03281060005
0.02498238483
0.01904821933
0.01458209429
0.01125078747
0.008783757837
0.006963137412
0.00561989442
0.00462626741
0.00388807523
0.003334624536
0.002914844793
0.002592051188
0.002339839973
0.00213962585
0.001978211222
0.001846438542
0.001737789851
0.001647221788
0.001571223106
0.001506999687
0.001452415638
0.001405792763
0.00136584038
0.001331391883
0.001301722727
0.001275969592
0.001253760272
0.001234375034
0.001217737757
0.00120328175
0.0011915347
0.001183003242
0.001180041095
0.001184660977
0.001205913028
0.001256998807
0.001366929616
0.001591584096
0.002066319222
0.003146170003
0.005923520158
0.01076523818
90084.27765
68643.2045
39507.22197
16507.2319
6213.615863
2535.580108
1132.146519
518.1261764
211.2337551
61.28093095
13.76133568
2.64080843
0.6039809469
0.2084979802
0.1016933709
0.06526304539
0.04739087059
0.03590167313
0.02748199528
0.02107903092
0.01621040711
0.01253984233
0.009795023359
0.007752544751
0.006235843353
0.0051083826
0.004266822628
0.003634235608
0.003154074067
0.002784969073
0.002497006344
0.002268925815
0.002085603486
0.001936493422
0.001813810285
0.001711813517
0.001626387263
0.001554291804
0.001493176262
0.001440941328
0.001396184703
0.001357659811
0.001324506347
0.001295767089
0.001270977602
0.001249351085
0.001230852883
0.001214864228
0.001202044498
0.001193265586
0.00119075858
0.001197192896
0.001222317465
0.001279804994
0.001399697956
0.001638661773
0.002132645246
0.003225860593
0.005919963197
0.01029091978
89066.50235
55441.38979
27739.41168
12330.15616
5531.075007
2644.910431
1350.937895
692.6565116
330.1197734
132.0382994
38.45632639
9.30682486
1.972938734
0.4694856531
0.1644907182
0.08152596029
0.05344699632
0.03947774232
0.03022477958
0.02333033402
0.01804289401
0.01400279523
0.01094075934
0.008640077558
0.006918444201
0.005633266065
0.004672321107
0.003950517526
0.003403740531
0.002984406862
0.002658460288
0.002401276813
0.00219544918
0.002028554575
0.001891509787
0.001777928973
0.001682965314
0.001602880725
0.001535035832
0.001477147406
0.001427645
0.001385013012
0.0013483289
0.001316502677
0.001289079475
0.001265181821
0.001244809883
0.00122731294
0.001213529068
0.001204709266
0.001202812272
0.001211325735
0.001240503786
0.00130443855
0.001434053106
0.00168644523
0.002197116804
0.003297311655
0.005903566899
0.009828273442
77965.27388
45823.78564
23583.9856
11618.7103
5835.792835
3112.564464
1724.941805
953.9939516
508.3214573
247.2167339
99.18968555
29.46654567
7.39815361
1.620170261
0.3821097097
0.1341325868
0.06689611163
0.04442069112
0.03324016591
0.02571350626
0.02003782552
0.01564181819
0.01225272581
0.009664154726
0.007706407817
0.006233586942
0.005128693433
0.004298843834
0.003672203515
0.003194499704
0.002825888298
0.002536924008
0.002307315711
0.002122002422
0.001970320469
0.001844893341
0.001740278019
0.001652236761
0.001577652963
0.001514108177