/*--------------------------------*- C++ -*----------------------------------*\
  =========                 |
  \\      /  F ield         | OpenFOAM: The Open Source CFD Toolbox
   \\    /   O peration     | Website:  https://openfoam.org
    \\  /    A nd           | Version:  10
     \\/     M anipulation  |
\*---------------------------------------------------------------------------*/
FoamFile
{
    format      ascii;
    class       volScalarField;
    location    "0.02498436188";
    object      H2O;
}
// * * * * * * * * * * * * * * * * * * * * * * * * * * * * * * * * * * * * * //

dimensions      [0 0 0 0 0 0 0];

internalField   nonuniform List<scalar> 
5170
(
2.55518392e-09
2.550747932e-09
2.521433761e-09
2.314470167e-09
1.775941905e-10
5.102562946e-09
5.088700381e-09
5.026303584e-09
4.708393042e-09
2.910781587e-09
7.637597587e-09
7.61455514e-09
7.52335728e-09
7.14342191e-09
5.650408877e-09
1.014739555e-08
1.011623004e-08
1.000355954e-08
9.598947099e-09
8.409037542e-09
1.26290846e-08
1.259120094e-08
1.246518196e-08
1.206604597e-08
1.117632129e-08
1.50813869e-08
1.503932444e-08
1.490845935e-08
1.45420737e-08
1.395025223e-08
1.750585148e-08
1.746174578e-08
1.733422643e-08
1.702747154e-08
1.673079028e-08
1.990655862e-08
1.986334354e-08
1.97467269e-08
1.95219489e-08
1.951889626e-08
2.228719437e-08
2.224741011e-08
2.215004687e-08
2.202802858e-08
2.231614764e-08
2.465204823e-08
2.461744503e-08
2.454507863e-08
2.454892976e-08
2.51249204e-08
2.700383917e-08
2.697616671e-08
2.693339909e-08
2.708638473e-08
2.794568029e-08
2.934311031e-08
2.932469625e-08
2.932139875e-08
2.963997964e-08
3.077587277e-08
3.167064554e-08
3.166393716e-08
3.171199085e-08
3.22098655e-08
3.36126854e-08
3.398716979e-08
3.399466237e-08
3.41046831e-08
3.479575032e-08
3.645314829e-08
3.629289967e-08
3.63175477e-08
3.649932937e-08
3.739584743e-08
3.929342201e-08
3.858724619e-08
3.86323825e-08
3.889920007e-08
4.001004809e-08
4.212611046e-08
4.087018367e-08
4.093959084e-08
4.130156743e-08
4.26327582e-08
4.495309467e-08
4.314207466e-08
4.324034453e-08
4.371462944e-08
4.527545461e-08
4.779763027e-08
4.54265156e-08
4.562911053e-08
4.677133781e-08
5.252571067e-08
6.927678995e-08
5.460875579e-08
8.664002699e-08
3.594165169e-07
2.252267997e-06
1.074317821e-05
0.09523446349
0.09522691545
0.09522619152
0.09522035782
0.09521700838
0.09579597305
0.09572513472
0.0957257297
0.09572459953
0.09580459406
0.0960915953
0.09601130902
0.09601246253
0.09603170135
0.09612631442
0.09626045813
0.09618645445
0.09618578492
0.09621969641
0.09630398491
0.09636924137
0.09630331172
0.09630191057
0.09633795806
0.09641797285
0.09643595651
0.09638290722
0.09637860995
0.09641719648
0.09648626792
0.09649660542
0.0964389622
0.09643459582
0.09647306482
0.0965422609
0.09654143751
0.09649254514
0.09648700241
0.09651858332
0.09659811643
0.09659003133
0.09653378329
0.09652838753
0.09657011468
0.09664528397
0.09663439087
0.09658266307
0.09657490583
0.09661549471
0.09667737393
0.09666676618
0.09662390715
0.09661626705
0.09665253221
0.09670155974
0.09669078078
0.09665740965
0.09665210243
0.09668079875
0.0967224613
0.09671092844
0.09668119236
0.09667768396
0.09670532368
0.09674212966
0.09673001749
0.09670320898
0.09670126919
0.09672604893
0.09675973112
0.09674786941
0.09672253024
0.09672144571
0.09674465828
0.0967754356
0.09676397225
0.09674055526
0.09674000717
0.09676147375
0.09678902103
0.09677834118
0.09675738072
0.09675730751
0.09677685538
0.09680116594
0.09679048306
0.09677280496
0.09677329881
0.0967905834
0.09681135826
0.09680994673
0.09678869925
0.09678752717
0.09680032702
0.09681502788
0.09800193257
0.09701727828
0.09676609243
0.09662867754
0.09638884174
3.126208522e-07
2.099222981e-06
3.168315514e-05
0.0004719907946
0.006322549314
1.498526536e-06
9.833961032e-06
0.0001197334119
0.001257545268
0.009601468988
4.907885548e-06
2.953600502e-05
0.0002958088431
0.002352305603
0.01212468825
1.281007749e-05
7.035697959e-05
0.0005939426704
0.003731604809
0.01424240975
2.909708096e-05
0.0001458862031
0.001054249458
0.00532485599
0.0160505809
6.127070309e-05
0.0002830064534
0.001732358616
0.007032135785
0.01769256916
0.0001218658513
0.0005178739363
0.002652279765
0.008797495931
0.01932884204
0.0002298023063
0.0008902238862
0.003805760828
0.01059560851
0.02099029815
0.0004157999811
0.001450805261
0.005173578456
0.01240252052
0.02263103167
0.0007272810077
0.002249241537
0.006727116453
0.01423067886
0.02426773528
0.001239893402
0.003346558016
0.008451658518
0.01609148244
0.02590960288
0.00209724901
0.004782149197
0.01031620733
0.01800756077
0.02758579178
0.003489155369
0.006567220157
0.0123347107
0.02000500538
0.0293342272
0.005384749088
0.008660963082
0.0145040962
0.02208273864
0.03113916336
0.007932955327
0.01114644338
0.01688524963
0.02428086326
0.03303143781
0.01097758315
0.01399547476
0.01951850384
0.02666303231
0.03506955642
0.01457998315
0.01735007215
0.02255697032
0.02935081934
0.03734142216
0.01884399952
0.02130150273
0.02607847885
0.03243728617
0.03998700618
0.02345653198
0.02563135977
0.02999589111
0.03593831012
0.04306859977
0.02838779225
0.03031117224
0.03420127783
0.0394906756
0.04576305687
0.03337928013
0.03488460918
0.03787995785
0.04180770998
0.04620467371
0.03695314427
0.03775208674
0.0393328428
0.04134424416
0.04345907447
0.0365590935
0.03682483955
0.03732456047
0.03789678618
0.03837739787
0.03276591517
0.03276561995
0.03271940654
0.03256669849
0.03224511689
0.02740750299
0.02731236065
0.02707649156
0.02668711757
0.0261352109
0.02195280741
0.02184600481
0.02159847551
0.02121128201
0.02068862921
0.01749898932
0.01740937025
0.01720196377
0.01688221002
0.01645850034
0.01394498647
0.01387546981
0.01371584112
0.01347166607
0.01315075874
0.01119289521
0.01114122337
0.01102319368
0.01084332395
0.01060765852
0.009093485441
0.009055890834
0.008970302798
0.008840068671
0.008669516185
0.007505059112
0.007477938456
0.00741633853
0.007322624368
0.007199765323
0.006308820257
0.006289203331
0.006244728437
0.00617703765
0.006088122638
0.005409912215
0.005395529583
0.00536299133
0.005313441151
0.005248203056
0.004735264766
0.00472447586
0.004700135201
0.004663060222
0.004614133911
0.004229576518
0.00422123443
0.004202484514
0.004173933888
0.004136178463
0.003850494157
0.003843817401
0.003828876084
0.003806144288
0.003776033247
0.003564776721
0.003559242706
0.003546916466
0.003528186246
0.003503344562
0.003346181288
0.00334145012
0.003330957116
0.003315033525
0.003293895713
0.00317446205
0.003170316742
0.003161155715
0.003147269558
0.00312882504
0.003034663596
0.003030967645
0.003022820955
0.003010482946
0.002994087299
0.002916286229
0.002912952576
0.002905617529
0.002894514785
0.002879755011
0.002812331518
0.002809302779
0.002802645773
0.002792572081
0.002779175619
0.002718344607
0.002715580264
0.002709508166
0.002700320259
0.002688097593
0.00263159379
0.002629063295
0.002623506321
0.002615097358
0.002603907202
0.002550432887
0.002548111338
0.002543013738
0.00253529888
0.002525029065
0.002473863492
0.002471729896
0.002467044912
0.002459953297
0.002450510195
0.0024012577
0.002399293774
0.002394981098
0.002388451806
0.0023797549
0.002332194503
0.00233038418
0.002326408416
0.002320388069
0.002312366828
0.002266370491
0.002264699491
0.002261029352
0.002255470748
0.002248062747
0.002203544283
0.002201999877
0.0021986074
0.002193468401
0.0021866179
0.002143504065
0.002142074717
0.002138934792
0.002134177596
0.002127834591
0.002086100275
0.002084775883
0.00208186612
0.002077456899
0.002071576565
0.002031150659
0.002029921928
0.00202722209
0.002023130336
0.002017672254
0.001978505171
0.001977363816
0.001974855723
0.001971054023
0.001965981864
0.001928024986
0.001926963553
0.001924630896
0.001921094629
0.001916375741
0.001879583313
0.001878595083
0.001876423112
0.001873130021
0.001868734875
0.001833065033
0.001832143925
0.001830119329
0.001827049311
0.001822951227
0.001788363412
0.001787503902
0.001785614559
0.001782749312
0.001778923992
0.00174537835
0.001744575444
0.001742810416
0.001740133415
0.001736558912
0.001704009337
0.001703258487
0.001701607788
0.001699103943
0.001695760199
0.001664159958
0.001663457087
0.00166191178
0.001659567576
0.001656436634
0.00162572776
0.001625069158
0.001623621082
0.001621424176
0.001618489615
0.001588630796
0.001588013236
0.001586655318
0.001584595012
0.001581842615
0.001552783406
0.001552203831
0.001550929339
0.001548995429
0.001546411592
0.001518143299
0.001517599136
0.001516402436
0.001514586411
0.001512159821
0.001484631307
0.001484119985
0.001482995424
0.001481288719
0.001479007973
0.001452276539
0.001451795947
0.00145073892
0.001449134587
0.001446990434
0.001421005328
0.001420552942
0.001419557892
0.00141804753
0.001416028809
0.001391320176
0.001390894058
0.0013899568
0.001388534105
0.001386632411
0.001365849163
0.001365444339
0.00136455386
0.001363202082
0.001361395028
0.02306625062
0.02401774362
0.02475869135
0.02561494385
0.02651292579
0.0274862691
0.02859446134
0.02981315753
0.03104561362
0.03231009288
0.03361275216
0.03497986361
0.03644847903
0.03796480696
0.03956938376
0.04131232515
0.04325549411
0.04559899979
0.04840657647
0.05035234282
0.0491993238
0.04478287299
0.03858788292
0.03193708245
0.02570181327
0.02029002298
0.01614136841
0.01291188645
0.01043235573
0.008542408328
0.007107854865
0.006021243022
0.005198785057
0.004576745713
0.004107026619
0.003752518743
0.003483725514
0.003277032823
0.003113989769
0.002980818699
0.002867758445
0.002768255236
0.002678114707
0.002594755793
0.002516622816
0.002442775629
0.002372627922
0.002305790809
0.002241987275
0.002180997811
0.002122629252
0.002066749633
0.002013190788
0.001961816282
0.001912499431
0.001865123756
0.001819583522
0.001775779859
0.001733620421
0.001693010958
0.001653861989
0.001616076164
0.001579578757
0.001544286189
0.001510163621
0.001477131622
0.001445226317
0.001414367777
0.001385067488
0.001359907778
0.05664330876
0.1104818487
0.09646713297
0.08626643894
0.06365290859
0.05018502348
0.09362543508
0.106165573
0.08239851239
0.05090344034
0.04718104184
0.08321174112
0.1137713834
0.08601784204
0.0488422002
0.04561772638
0.07873027254
0.1156694402
0.09358500076
0.05783602315
0.04477016558
0.07535818555
0.1095963526
0.1019555735
0.07018879806
0.04435926479
0.07255670352
0.103374447
0.1091181941
0.08162394548
0.04430301464
0.07045863978
0.09905391834
0.1141824189
0.09202736527
0.04452635679
0.06888515126
0.09560890962
0.1165893633
0.1004949753
0.04488089184
0.06764913691
0.09259565979
0.1148375057
0.1068517578
0.04537533041
0.06676296055
0.09022864299
0.1126326364
0.1118451022
0.04600100341
0.06623668424
0.08853868915
0.1106512815
0.1155582556
0.04677281816
0.06600166791
0.08719560922
0.1086231302
0.1181294076
0.04769571453
0.0659513605
0.08587430929
0.1060049063
0.1181168659
0.04868072765
0.06598154193
0.0847399866
0.1038099037
0.11718202
0.04977100316
0.06618182567
0.0839095852
0.1020903367
0.1161525028
0.05101347046
0.06658378924
0.08335700769
0.1006487177
0.1150072002
0.05241638801
0.06711070527
0.08295185957
0.09941347971
0.1137809082
0.05425252204
0.06826123438
0.08350254948
0.09949950115
0.113437445
0.05661200032
0.07015715689
0.08510818287
0.1009006602
0.1137746961
0.05732569942
0.06824963829
0.07944550511
0.09156604903
0.1066235765
0.0537206628
0.05955153711
0.06354227202
0.0649418323
0.06284839915
0.04685309452
0.04853415636
0.04818120873
0.04551331906
0.0405994916
0.03906212863
0.03852322742
0.03652754854
0.03319746813
0.02886328648
0.03166275138
0.03033994711
0.02813478448
0.02523586027
0.02192080229
0.02522494954
0.02387026698
0.02197084385
0.01969668409
0.0172343543
0.01983003429
0.01869875577
0.01722458729
0.01553455092
0.01375162657
0.01577073876
0.01489930434
0.01379533756
0.01255074039
0.01124855522
0.01263051321
0.01198234618
0.01117054586
0.01026001094
0.009307308334
0.01022463887
0.009750232955
0.009157914765
0.008492917255
0.00779404603
0.008390916167
0.008046007137
0.007614846946
0.007128643917
0.006614060595
0.006997523152
0.006746625387
0.006431950919
0.006074835908
0.005693567758
0.005940149079
0.005756084401
0.005524400855
0.005259600276
0.004974208335
0.005137980433
0.005000659982
0.004827426944
0.004628120226
0.004411326257
0.004529785904
0.004424816079
0.00429246308
0.004139407687
0.0039715513
0.004069422031
0.003986732265
0.003882892286
0.003762447107
0.003629468316
0.003721240192
0.003653911204
0.003569978399
0.003472545071
0.003364438776
0.003456804684
0.003400180931
0.003330247981
0.003249143221
0.003158854182
0.003253241972
0.003204266501
0.003144353634
0.003075001092
0.00299763499
0.003092587667
0.003049297205
0.002996775581
0.002936101069
0.002868327289
0.002961361264
0.002922507873
0.002875663748
0.002821633284
0.002761222757
0.00284996935
0.00281475013
0.002772464155
0.002723735339
0.002669203792
0.002751945913
0.002719822807
0.002681346935
0.002637020431
0.00258736787
0.002663140447
0.002633728693
0.002598539302
0.002557988867
0.002512518596
0.002580993661
0.002553995821
0.002521702726
0.002484467772
0.002442668975
0.002503962885
0.002479134587
0.002449428828
0.002415150079
0.002376626124
0.002431117785
0.00240824953
0.002380873966
0.002349256053
0.002313682449
0.002361880967
0.002340789004
0.002315522652
0.002286314212
0.0022534157
0.002295872074
0.0022763936
0.002253043179
0.002226025021
0.002195561464
0.002232822062
0.002214811501
0.002193204941
0.002168182581
0.002139940992
0.002172518622
0.002155845268
0.002135828618
0.002112628044
0.002086417855
0.00211477516
0.002099321429
0.002080756486
0.002059221582
0.002034871356
0.002059466101
0.002045126064
0.002027887784
0.002007876712
0.001985230338
0.002006428234
0.001993106135
0.001977081656
0.001958466401
0.0019373828
0.001955530171
0.001943139801
0.001928227365
0.001910892317
0.001891243848
0.001906649683
0.001895113342
0.001881221089
0.001865061718
0.001846732758
0.001859674082
0.001848921369
0.001835966018
0.001820887424
0.001803772842
0.001814501073
0.001804468256
0.00179237435
0.001778290465
0.00176229477
0.001771034695
0.001761663618
0.001750362235
0.001737194334
0.001722230051
0.001729185487
0.001720423547
0.001709852253
0.00169752892
0.001683516526
0.001688861568
0.001680660568
0.001670762029
0.001659217469
0.0016460836
0.001649976125
0.001642293036
0.001633015933
0.001622191306
0.001609870305
0.001612433759
0.001605229139
0.001596526367
0.001586367531
0.001574798856
0.0015761624
0.001569401994
0.001561232476
0.001551691915
0.001540822179
0.001541079212
0.001534730288
0.001527054922
0.001518087779
0.001507866829
0.001507151997
0.00150118727
0.00149397347
0.00148554214
0.001475927751
0.001474301264
0.001468692955
0.001461907551
0.001453973816
0.00144492299
0.00144256546
0.001437291197
0.001430907648
0.0014234408
0.001414919079
0.001411862638
0.001406895239
0.00140088128
0.001393844533
0.00138581086
0.001382706971
0.001378026061
0.001372357534
0.00136572298
0.001358145773
0.001357664329
0.001353214228
0.001347824312
0.001341514445
0.001334306164
0.007619758016
0.0004954006647
4.05036932e-05
7.397604297e-06
2.392324153e-06
1.002038566e-06
4.776792546e-07
2.62377402e-07
1.732104997e-07
1.368244469e-07
1.222265183e-07
1.163881782e-07
1.140077343e-07
1.130040662e-07
1.125965857e-07
1.125208822e-07
1.123652064e-07
1.120776767e-07
1.119204236e-07
1.118295612e-07
1.117647118e-07
1.117098657e-07
1.116596519e-07
1.116128782e-07
1.11569546e-07
1.115298259e-07
1.114932958e-07
1.114594039e-07
1.114281197e-07
1.113995044e-07
1.113729469e-07
1.113479348e-07
1.113244435e-07
1.113024973e-07
1.112824072e-07
1.112640157e-07
1.112471351e-07
1.112314001e-07
1.112168437e-07
1.112033246e-07
1.111907546e-07
1.111789835e-07
1.111676988e-07
1.111565854e-07
1.111462674e-07
1.111376249e-07
1.111301692e-07
1.111236041e-07
1.11117517e-07
1.111121287e-07
1.11107193e-07
1.111028319e-07
1.11098617e-07
1.110941869e-07
1.110789812e-07
1.109801488e-07
1.103889038e-07
1.077440107e-07
9.878105749e-08
8.689571778e-08
0.01301445467
0.001387601661
0.0001164865742
1.745744758e-05
5.111143279e-06
2.194875314e-06
1.161750559e-06
7.176142087e-07
5.137917285e-07
4.194637214e-07
3.762135874e-07
3.564882623e-07
3.474219659e-07
3.431723751e-07
3.412009236e-07
3.40475141e-07
3.398357455e-07
3.389817903e-07
3.385037374e-07
3.38221901e-07
3.380233675e-07
3.378565206e-07
3.377053006e-07
3.375666298e-07
3.37442776e-07
3.37331464e-07
3.372283646e-07
3.371340877e-07
3.370519805e-07
3.369795089e-07
3.369124539e-07
3.368491413e-07
3.367916513e-07
3.367428553e-07
3.36701939e-07
3.3666526e-07
3.366324596e-07
3.366004989e-07
3.365733186e-07
3.365459977e-07
3.365257485e-07
3.365097661e-07
3.364917406e-07
3.364754555e-07
3.364577195e-07
3.36444986e-07
3.364330104e-07
3.364266706e-07
3.364210594e-07
3.364168061e-07
3.364124412e-07
3.364109829e-07
3.364066742e-07
3.36406245e-07
3.363781672e-07
3.362168879e-07
3.354551826e-07
3.328830321e-07
3.274847521e-07
3.234002836e-07
0.01580563467
0.002197319374
0.0001779143934
2.349623935e-05
6.468611102e-06
2.870375217e-06
1.661946556e-06
1.135092405e-06
8.733120044e-07
7.381523118e-07
6.679841158e-07
6.316968707e-07
6.129756793e-07
6.032754034e-07
5.982745771e-07
5.959074732e-07
5.943390671e-07
5.928833489e-07
5.920721125e-07
5.915902861e-07
5.912408835e-07
5.909372414e-07
5.906575536e-07
5.904019696e-07
5.901727622e-07
5.899669134e-07
5.897829155e-07
5.896183476e-07
5.894706909e-07
5.893401642e-07
5.892246113e-07
5.891219126e-07
5.8903513e-07
5.889621882e-07
5.888985343e-07
5.888457206e-07
5.888036142e-07
5.887644073e-07
5.887290059e-07
5.886950299e-07
5.886713525e-07
5.886527833e-07
5.886379473e-07
5.886305974e-07
5.886241194e-07
5.886238648e-07
5.886228615e-07
5.886303802e-07
5.88636054e-07
5.886481302e-07
5.886594991e-07
5.886790542e-07
5.886908627e-07
5.887149714e-07
5.887123065e-07
5.886609288e-07
5.884528354e-07
5.883588397e-07
5.907188736e-07
5.953722991e-07
0.02454448255
0.005616940159
0.0005237354906
4.028065194e-05
7.81967759e-06
3.244052253e-06
1.963982539e-06
1.424699434e-06
1.147781499e-06
9.943616626e-07
9.068575814e-07
8.566620654e-07
8.280138192e-07
8.118015571e-07
8.02776024e-07
7.98014664e-07
7.9524239e-07
7.933706308e-07
7.924178659e-07
7.919063696e-07
7.915575377e-07
7.91257547e-07
7.90979333e-07
7.907249131e-07
7.904989794e-07
7.902982746e-07
7.901210885e-07
7.899658448e-07
7.898292479e-07
7.897109044e-07
7.896089503e-07
7.895213433e-07
7.894500333e-07
7.893929672e-07
7.893466842e-07
7.893134758e-07
7.892915449e-07
7.892729926e-07
7.892574662e-07
7.892452809e-07
7.892407917e-07
7.892403056e-07
7.892455292e-07
7.892580757e-07
7.892738575e-07
7.892953954e-07
7.893170518e-07
7.893446373e-07
7.893698797e-07
7.894035968e-07
7.894371069e-07
7.894791077e-07
7.895132425e-07
7.895645967e-07
7.896112494e-07
7.897335832e-07
7.901458139e-07
7.919847922e-07
7.980441284e-07
8.052506719e-07
0.03611862405
0.01193255575
0.002099140031
0.0001718224827
1.802282513e-05
4.773293475e-06
2.430484272e-06
1.681326672e-06
1.344056404e-06
1.165014111e-06
1.062003285e-06
1.000545076e-06
9.635755768e-07
9.413685158e-07
9.282758638e-07
9.209086909e-07
9.168275282e-07
9.146030489e-07
9.136090951e-07
9.131874834e-07
9.129721346e-07
9.128116751e-07
9.126667565e-07
9.125364856e-07
9.124239958e-07
9.123279859e-07
9.122469589e-07
9.121794879e-07
9.121239015e-07
9.120797642e-07
9.1204558e-07
9.120203696e-07
9.120050856e-07
9.119987915e-07
9.119993885e-07
9.120082895e-07
9.120238965e-07
9.120414123e-07
9.120601135e-07
9.120813501e-07
9.1210661e-07
9.121332976e-07
9.121634036e-07
9.121976162e-07
9.122340295e-07
9.122738876e-07
9.123143793e-07
9.123571552e-07
9.12398357e-07
9.124456227e-07
9.124931026e-07
9.125465773e-07
9.125954585e-07
9.126603145e-07
9.12741765e-07
9.129538205e-07
9.13595445e-07
9.157280215e-07
9.210594888e-07
9.264909252e-07
0.04891826154
0.02208729463
0.006551541983
0.001014006711
8.620485883e-05
1.206831895e-05
3.861324891e-06
2.127296025e-06
1.544188164e-06
1.28761778e-06
1.155646273e-06
1.080983033e-06
1.036350238e-06
1.009014228e-06
9.923213211e-07
9.824775316e-07
9.769682241e-07
9.741559371e-07
9.72945388e-07
9.725190687e-07
9.724002835e-07
9.723746695e-07
9.72372626e-07
9.723805268e-07
9.723955746e-07
9.724164589e-07
9.72442066e-07
9.724711197e-07
9.725027869e-07
9.725373696e-07
9.725740124e-07
9.726125725e-07
9.726536957e-07
9.726972527e-07
9.727421954e-07
9.727893885e-07
9.728381191e-07
9.728865986e-07
9.729345292e-07
9.729828393e-07
9.730320243e-07
9.730805188e-07
9.731295417e-07
9.731791051e-07
9.732283928e-07
9.732784888e-07
9.733288366e-07
9.733796058e-07
9.734288266e-07
9.734799175e-07
9.73530374e-07
9.735839433e-07
9.736357813e-07
9.737000968e-07
9.737892018e-07
9.739955289e-07
9.745476411e-07
9.76084289e-07
9.792978654e-07
9.822557732e-07
0.06053674679
0.03278299215
0.01388373085
0.0038762118
0.0005210829947
4.701909912e-05
8.387597401e-06
3.15793278e-06
1.881901346e-06
1.429625507e-06
1.231776898e-06
1.13205547e-06
1.076348595e-06
1.043101623e-06
1.022692504e-06
1.010268403e-06
1.00307931e-06
9.99301237e-07
9.975542073e-07
9.968931626e-07
9.967238993e-07
9.967412117e-07
9.968208784e-07
9.969211544e-07
9.970275433e-07
9.971341064e-07
9.972377531e-07
9.973369992e-07
9.974316422e-07
9.97522001e-07
9.976082579e-07
9.976909834e-07
9.977707484e-07
9.978479494e-07
9.979225063e-07
9.979949542e-07
9.980653192e-07
9.981332665e-07
9.981988918e-07
9.982627186e-07
9.983250015e-07
9.983852078e-07
9.984439509e-07
9.985012131e-07
9.985567057e-07
9.986109808e-07
9.986640947e-07
9.98716421e-07
9.987671764e-07
9.988174046e-07
9.988663044e-07
9.989161487e-07
9.989657355e-07
9.990248455e-07
9.99107831e-07
9.992755742e-07
9.99661616e-07
1.000560365e-06
1.002164112e-06
1.003514969e-06
0.07116820228
0.04323189011
0.02281526717
0.009473121043
0.002343600591
0.0002447183717
2.548073733e-05
5.881681015e-06
2.580811331e-06
1.667944865e-06
1.330650045e-06
1.181866913e-06
1.106705772e-06
1.064493725e-06
1.039181896e-06
1.023686506e-06
1.014497325e-06
1.009433499e-06
1.006863008e-06
1.005727937e-06
1.005331355e-06
1.005271332e-06
1.005351222e-06
1.005485988e-06
1.005639465e-06
1.005795236e-06
1.005945668e-06
1.006087565e-06
1.006220283e-06
1.006344219e-06
1.00646009e-06
1.006568809e-06
1.006671174e-06
1.006767934e-06
1.006859553e-06
1.00694661e-06
1.007029487e-06
1.007108412e-06
1.007183707e-06
1.007255758e-06
1.00732483e-06
1.007390921e-06
1.007454387e-06
1.007515387e-06
1.00757397e-06
1.007630377e-06
1.007684641e-06
1.007737111e-06
1.007787708e-06
1.007836829e-06
1.007884441e-06
1.007931924e-06
1.007980045e-06
1.008036299e-06
1.008114045e-06
1.008252595e-06
1.008522358e-06
1.009040236e-06
1.009827646e-06
1.01042506e-06
0.08092081098
0.05283278366
0.03127314179
0.01648567786
0.006634613391
0.001198230648
9.982509123e-05
1.375112313e-05
4.135538256e-06
2.112707765e-06
1.488315368e-06
1.248763348e-06
1.140801175e-06
1.084783683e-06
1.052520768e-06
1.032951286e-06
1.021181187e-06
1.014442485e-06
1.010777966e-06
1.008961375e-06
1.00817648e-06
1.007922766e-06
1.007924314e-06
1.008041661e-06
1.008206522e-06
1.008385282e-06
1.008561796e-06
1.008729126e-06
1.008885078e-06
1.009029608e-06
1.009163574e-06
1.009288062e-06
1.009404111e-06
1.009512713e-06
1.009614618e-06
1.009710558e-06
1.009801099e-06
1.009886716e-06
1.009967839e-06
1.010044873e-06
1.01011815e-06
1.010187889e-06
1.010254396e-06
1.010317893e-06
1.010378559e-06
1.0104366e-06
1.010492126e-06
1.010545361e-06
1.010596425e-06
1.010645592e-06
1.010693179e-06
1.01074036e-06
1.010789095e-06
1.010846059e-06
1.010924253e-06
1.011051546e-06
1.011267832e-06
1.011619321e-06
1.012080332e-06
1.012383416e-06
0.0898475621
0.06225348086
0.0395835192
0.02309982573
0.01163857297
0.003665910881
0.0004126583025
3.605124144e-05
7.283953411e-06
2.854840524e-06
1.722847273e-06
1.340703228e-06
1.184856798e-06
1.109566992e-06
1.067822857e-06
1.042765716e-06
1.027538603e-06
1.018562784e-06
1.013440384e-06
1.010697011e-06
1.009351984e-06
1.008784774e-06
1.008628621e-06
1.00867898e-06
1.008825208e-06
1.009008548e-06
1.009199154e-06
1.009383302e-06
1.009555758e-06
1.009715338e-06
1.009862612e-06
1.009998707e-06
1.010124847e-06
1.010242184e-06
1.010351695e-06
1.010454242e-06
1.010550543e-06
1.010641205e-06
1.010726754e-06
1.010807651e-06
1.010884293e-06
1.010957008e-06
1.011026113e-06
1.011091873e-06
1.011154515e-06
1.011214255e-06
1.01127127e-06
1.011325765e-06
1.011377929e-06
1.011428045e-06
1.011476617e-06
1.011524949e-06
1.011575834e-06
1.011636188e-06
1.011719243e-06
1.011847578e-06
1.012048289e-06
1.012341537e-06
1.01268738e-06
1.01287884e-06
0.09747927575
0.07159487925
0.04829756965
0.03016758394
0.01687749435
0.006979888816
0.001225065322
0.0001010461722
1.374917195e-05
4.02779588e-06
2.041425125e-06
1.457519182e-06
1.240069716e-06
1.140801528e-06
1.087191048e-06
1.055139873e-06
1.03542344e-06
1.023502242e-06
1.01644187e-06
1.012449116e-06
1.010326786e-06
1.009300474e-06
1.008891763e-06
1.008816698e-06
1.008910641e-06
1.009080326e-06
1.009275474e-06
1.009471326e-06
1.00965731e-06
1.009829977e-06
1.00998908e-06
1.010135581e-06
1.010270788e-06
1.010395992e-06
1.010512349e-06
1.010620858e-06
1.010722373e-06
1.010817614e-06
1.010907201e-06
1.010991664e-06
1.011071463e-06
1.011146993e-06
1.011218604e-06
1.0112866e-06
1.011351245e-06
1.011412783e-06
1.011471426e-06
1.011527395e-06
1.011580935e-06
1.011632401e-06
1.011682476e-06
1.011732762e-06
1.011786769e-06
1.011852073e-06
1.011942229e-06
1.012077259e-06
1.012278123e-06
1.012553639e-06
1.012856363e-06
1.012995568e-06
0.1039263824
0.08014848471
0.05687377785
0.03727967259
0.02197277216
0.01034234287
0.00267425557
0.0002649218571
2.844404077e-05
6.005246399e-06
2.47000334e-06
1.5992554e-06
1.306140295e-06
1.178851242e-06
1.111251038e-06
1.0707812e-06
1.04555923e-06
1.029947943e-06
1.020407209e-06
1.014783106e-06
1.011619231e-06
1.009954345e-06
1.009174465e-06
1.008898885e-06
1.008896018e-06
1.009027722e-06
1.009215253e-06
1.00941724e-06
1.009614386e-06
1.00979918e-06
1.009969724e-06
1.010126456e-06
1.01027062e-06
1.01040361e-06
1.010526732e-06
1.010641131e-06
1.01074779e-06
1.010847545e-06
1.010941108e-06
1.011029091e-06
1.011112014e-06
1.01119033e-06
1.011264431e-06
1.011334659e-06
1.011401316e-06
1.011464678e-06
1.011524988e-06
1.0115825e-06
1.011637514e-06
1.011690492e-06
1.011742337e-06
1.011795042e-06
1.011852803e-06
1.01192389e-06
1.012021983e-06
1.012165335e-06
1.012370792e-06
1.012640202e-06
1.012920474e-06
1.013023827e-06
0.1090718561
0.0875806753
0.06477712911
0.04426089557
0.02692745967
0.01351065425
0.00430243763
0.0006126723829
5.575808272e-05
9.166379502e-06
3.016137833e-06
1.761393442e-06
1.381592196e-06
1.223218628e-06
1.139785562e-06
1.089635099e-06
1.05801113e-06
1.038052418e-06
1.025533835e-06
1.017900234e-06
1.013419745e-06
1.010920748e-06
1.009634727e-06
1.009068824e-06
1.008912493e-06
1.008973029e-06
1.009135217e-06
1.009334818e-06
1.009539491e-06
1.009735085e-06
1.009916714e-06
1.010083677e-06
1.010236899e-06
1.010377787e-06
1.010507766e-06
1.010628125e-06
1.010739979e-06
1.010844281e-06
1.010941841e-06
1.011033351e-06
1.0111194e-06
1.011200495e-06
1.011277076e-06
1.011349527e-06
1.011418187e-06
1.011483365e-06
1.011545338e-06
1.011604401e-06
1.011660924e-06
1.011715512e-06
1.011769329e-06
1.011824802e-06
1.011886772e-06
1.011964077e-06
1.012070228e-06
1.012221784e-06
1.012432065e-06
1.012697441e-06
1.012960415e-06
1.01303137e-06
0.1130607376
0.09406836981
0.0719706856
0.05083728683
0.03159338347
0.01629300982
0.005870041824
0.001164557484
0.0001066263992
1.460304394e-05
3.834726911e-06
1.978453932e-06
1.475624177e-06
1.276302035e-06
1.173279351e-06
1.111677164e-06
1.072669368e-06
1.047737806e-06
1.031794627e-06
1.021819788e-06
1.015773412e-06
1.012256749e-06
1.010331553e-06
1.0093818e-06
1.009008712e-06
1.008957649e-06
1.009070663e-06
1.009255135e-06
1.009461229e-06
1.009665045e-06
1.009856855e-06
1.01003384e-06
1.010196161e-06
1.010345049e-06
1.010481985e-06
1.010608382e-06
1.010725488e-06
1.010834375e-06
1.010935952e-06
1.011030996e-06
1.011120166e-06
1.01120403e-06
1.011283077e-06
1.011357735e-06
1.01142838e-06
1.011495355e-06
1.011558977e-06
1.011619592e-06
1.011677661e-06
1.011733964e-06
1.011789961e-06
1.011848526e-06
1.011915071e-06
1.011998813e-06
1.012112831e-06
1.012271901e-06
1.012486056e-06
1.012747027e-06
1.012993878e-06
1.013032835e-06
0.1161202721
0.09958967221
0.07827276132
0.05651281609
0.03521882013
0.01789709705
0.00677909456
0.001751330767
0.000199619434
2.575139732e-05
5.240422565e-06
2.287139052e-06
1.59637435e-06
1.340772588e-06
1.212614437e-06
1.137095229e-06
1.089485096e-06
1.058885773e-06
1.039086147e-06
1.026474969e-06
1.018651262e-06
1.013958578e-06
1.011277557e-06
1.009858897e-06
1.009207822e-06
1.009002527e-06
1.009038439e-06
1.009190973e-06
1.009389315e-06
1.009596844e-06
1.009796855e-06
1.009983114e-06
1.010154317e-06
1.01031119e-06
1.010455125e-06
1.010587606e-06
1.010709997e-06
1.010823485e-06
1.010929082e-06
1.011027653e-06
1.011119929e-06
1.011206542e-06
1.011288033e-06
1.011364874e-06
1.011437479e-06
1.011506228e-06
1.011571486e-06
1.011633666e-06
1.01169334e-06
1.01175149e-06
1.011809898e-06
1.01187187e-06
1.011943295e-06
1.01203356e-06
1.012155092e-06
1.012320821e-06
1.012537684e-06
1.012793496e-06
1.013024712e-06
1.013032847e-06
0.118309958
0.1040588339
0.08310681993
0.06026660357
0.03647302378
0.01753702317
0.006672962619
0.002048014502
0.0003367081892
4.842802965e-05
8.064836782e-06
2.809100592e-06
1.770495199e-06
1.425004554e-06
1.261111223e-06
1.167392224e-06
1.109174977e-06
1.071829137e-06
1.047548481e-06
1.031925574e-06
1.022066911e-06
1.016028046e-06
1.012476794e-06
1.01050939e-06
1.009522886e-06
1.009121608e-06
1.009050837e-06
1.009151722e-06
1.00933024e-06
1.009534741e-06
1.009739521e-06
1.009933461e-06
1.010112878e-06
1.010277487e-06
1.010428346e-06
1.010566895e-06
1.010694568e-06
1.010812651e-06
1.010922257e-06
1.011024336e-06
1.011119696e-06
1.011209032e-06
1.011292939e-06
1.011371933e-06
1.011446472e-06
1.011516974e-06
1.011583864e-06
1.011647637e-06
1.011709e-06
1.01176916e-06
1.011830225e-06
1.011895905e-06
1.011972457e-06
1.012069247e-06
1.012197882e-06
1.012369405e-06
1.012587863e-06
1.012837817e-06
1.013053854e-06
1.013033075e-06
0.1190195275
0.1057086927
0.08428691838
0.05971829775