/*--------------------------------*- C++ -*----------------------------------*\
  =========                 |
  \\      /  F ield         | OpenFOAM: The Open Source CFD Toolbox
   \\    /   O peration     | Website:  https://openfoam.org
    \\  /    A nd           | Version:  10
     \\/     M anipulation  |
\*---------------------------------------------------------------------------*/
FoamFile
{
    format      ascii;
    class       volScalarField;
    location    "0.02498436188";
    object      H2O2_0;
}
// * * * * * * * * * * * * * * * * * * * * * * * * * * * * * * * * * * * * * //

dimensions      [0 0 0 0 0 0 0];

internalField   nonuniform List<scalar> 
5170
(
1.960010558e-10
1.956667165e-10
1.934379931e-10
1.775990181e-10
1.358573201e-11
3.906485072e-10
3.896081791e-10
3.848826099e-10
3.607000937e-10
2.231312044e-10
5.834350223e-10
5.81708912e-10
5.7481804e-10
5.460002989e-10
4.323787541e-10
7.738828914e-10
7.715494827e-10
7.630471313e-10
7.324104039e-10
6.421203475e-10
9.620099465e-10
9.591729683e-10
9.496673169e-10
9.194642736e-10
8.520994662e-10
1.147920848e-09
1.144761626e-09
1.134877784e-09
1.107163912e-09
1.062433857e-09
1.331872338e-09
1.328550992e-09
1.318899963e-09
1.295684728e-09
1.27333607e-09
1.5142213e-09
1.510966609e-09
1.502132266e-09
1.485081549e-09
1.485004295e-09
1.695222329e-09
1.692218826e-09
1.684831309e-09
1.675562716e-09
1.697584857e-09
1.875133294e-09
1.872515653e-09
1.86699487e-09
1.867308347e-09
1.911201303e-09
2.054073582e-09
2.051988206e-09
2.048724023e-09
2.060359352e-09
2.125787298e-09
2.23204209e-09
2.230666483e-09
2.230442506e-09
2.254633541e-09
2.341082272e-09
2.409086696e-09
2.408598454e-09
2.4122876e-09
2.450119091e-09
2.556850902e-09
2.585255024e-09
2.585842806e-09
2.594229292e-09
2.646783145e-09
2.772869285e-09
2.760571942e-09
2.762465252e-09
2.776299518e-09
2.844508763e-09
2.988881178e-09
2.935028091e-09
2.938485178e-09
2.958789817e-09
3.043327877e-09
3.204384447e-09
3.108663208e-09
3.113970299e-09
3.141534489e-09
3.242872743e-09
3.419572093e-09
3.281539334e-09
3.289030193e-09
3.325097427e-09
3.443414898e-09
3.633741462e-09
3.453723629e-09
3.46381619e-09
3.509804057e-09
3.645774885e-09
3.849613525e-09
3.626900595e-09
3.646729956e-09
3.744632001e-09
4.1363526e-09
5.233239844e-09
1.506160126e-07
1.505488539e-07
1.505710512e-07
1.504889246e-07
1.503960052e-07
1.275161336e-07
1.313073047e-07
1.314429234e-07
1.303751963e-07
1.246871559e-07
1.037430174e-07
1.097402277e-07
1.098655578e-07
1.074903517e-07
9.948768014e-08
8.870201232e-08
9.482926806e-08
9.508415912e-08
9.17899578e-08
8.445769652e-08
7.892089726e-08
8.459104373e-08
8.483163168e-08
8.158988221e-08
7.466557375e-08
7.32671206e-08
7.770672213e-08
7.816123008e-08
7.488281106e-08
6.939053474e-08
6.85918089e-08
7.310426947e-08
7.353154365e-08
7.088173064e-08
6.71707561e-08
6.666891743e-08
6.923596925e-08
6.963512361e-08
6.830555655e-08
6.551060262e-08
6.539436005e-08
6.731159326e-08
6.763234014e-08
6.638912701e-08
6.39661432e-08
6.428836007e-08
6.628710197e-08
6.62572868e-08
6.491441967e-08
6.335495576e-08
6.351731624e-08
6.507539411e-08
6.496957888e-08
6.37279303e-08
6.291002965e-08
6.297248838e-08
6.372706064e-08
6.373498874e-08
6.321299499e-08
6.251283007e-08
6.254985479e-08
6.320757882e-08
6.326075624e-08
6.275687837e-08
6.219517315e-08
6.223188719e-08
6.27418071e-08
6.279792623e-08
6.238313477e-08
6.188521948e-08
6.194946663e-08
6.238179915e-08
6.241824323e-08
6.205251754e-08
6.153585753e-08
6.170919869e-08
6.208321836e-08
6.210261088e-08
6.177289176e-08
6.122919189e-08
6.141356747e-08
6.180305333e-08
6.180715705e-08
6.144937236e-08
6.088636359e-08
6.111615916e-08
6.149453491e-08
6.147799853e-08
6.109420405e-08
6.050306082e-08
6.135352261e-08
6.12810032e-08
6.114225239e-08
6.074680945e-08
6.009742533e-08
1.190611672e-07
7.198285679e-08
6.251252976e-08
6.073999663e-08
5.996075904e-08
3.829786683e-09
4.131549255e-09
8.916761457e-09
7.936684385e-08
6.954623462e-07
4.216045663e-09
5.795211754e-09
2.710511446e-08
2.596409275e-07
1.462114281e-06
5.149412425e-09
1.07393633e-08
7.647586892e-08
5.447892016e-07
2.0287913e-06
7.277375138e-09
2.157479458e-08
1.583785194e-07
8.917556203e-07
2.381043814e-06
1.168606993e-08
4.205999366e-08
2.85820649e-07
1.236656847e-06
2.548709395e-06
2.036522028e-08
7.897232988e-08
4.665822495e-07
1.526411723e-06
2.613931248e-06
3.62216853e-08
1.3870861e-07
6.811075043e-07
1.75202997e-06
2.660892378e-06
6.375340855e-08
2.300861048e-07
9.095841189e-07
1.925254366e-06
2.704809273e-06
1.091909381e-07
3.60430073e-07
1.132995907e-06
2.055895157e-06
2.730844564e-06
1.813171785e-07
5.323459385e-07
1.337077922e-06
2.151378862e-06
2.731950587e-06
2.887437469e-07
7.292886639e-07
1.514371808e-06
2.219610109e-06
2.715698152e-06
4.678623123e-07
9.508713001e-07
1.665295879e-06
2.270226051e-06
2.693209283e-06
7.175697065e-07
1.178211268e-06
1.796439402e-06
2.308313492e-06
2.6640357e-06
9.974180427e-07
1.399386949e-06
1.913531057e-06
2.337367977e-06
2.627431153e-06
1.301219041e-06
1.613786224e-06
2.020704889e-06
2.360770693e-06
2.589748787e-06
1.589831887e-06
1.815644584e-06
2.124055538e-06
2.387930389e-06
2.563502147e-06
1.854129481e-06
2.007989175e-06
2.230353493e-06
2.427104983e-06
2.556713793e-06
2.103085164e-06
2.203507845e-06
2.360357238e-06
2.507601044e-06
2.607259047e-06
2.395220632e-06
2.472333559e-06
2.608105234e-06
2.75469782e-06
2.869733769e-06
3.060310331e-06
3.176237909e-06
3.408053376e-06
3.70732483e-06
4.005996015e-06
5.088081036e-06
5.373681106e-06
5.990664448e-06
6.904659309e-06
8.085169568e-06
9.604701944e-06
1.003330133e-05
1.098082595e-05
1.241991642e-05
1.434123056e-05
1.50672807e-05
1.546672791e-05
1.634814123e-05
1.766854271e-05
1.938896808e-05
1.89626686e-05
1.922452719e-05
1.97952343e-05
2.063220705e-05
2.168147348e-05
2.042099761e-05
2.054565608e-05
2.080901029e-05
2.117621753e-05
2.161043962e-05
1.999293979e-05
2.002595319e-05
2.008960777e-05
2.01677349e-05
2.024174661e-05
1.879197876e-05
1.878408173e-05
1.875964083e-05
1.871211565e-05
1.863463213e-05
1.74937578e-05
1.747095032e-05
1.741628533e-05
1.732814688e-05
1.720549024e-05
1.646327103e-05
1.643815223e-05
1.638017976e-05
1.629043376e-05
1.616951538e-05
1.584852549e-05
1.582536555e-05
1.577308249e-05
1.569516622e-05
1.55920583e-05
1.567548611e-05
1.565540197e-05
1.561118598e-05
1.554404486e-05
1.545567739e-05
1.587916244e-05
1.586098909e-05
1.582176072e-05
1.576302914e-05
1.568522389e-05
1.635968474e-05
1.634173251e-05
1.630351044e-05
1.624652188e-05
1.61710344e-05
1.697263184e-05
1.695382282e-05
1.691393626e-05
1.685464983e-05
1.677603598e-05
1.757293055e-05
1.755294573e-05
1.75105036e-05
1.74473305e-05
1.736357888e-05
1.804458974e-05
1.802352193e-05
1.797854032e-05
1.791145836e-05
1.782250426e-05
1.831406569e-05
1.829260571e-05
1.824651492e-05
1.817759746e-05
1.808621691e-05
1.836372489e-05
1.834253577e-05
1.829675675e-05
1.822807685e-05
1.813693686e-05
1.82111727e-05
1.819090825e-05
1.814689939e-05
1.808070255e-05
1.799279772e-05
1.790316352e-05
1.788427443e-05
1.784308464e-05
1.778100987e-05
1.76985799e-05
1.749319693e-05
1.747593663e-05
1.743815911e-05
1.738110277e-05
1.730525076e-05
1.703176725e-05
1.701613871e-05
1.698184058e-05
1.692995371e-05
1.686091474e-05
1.655694441e-05
1.654284097e-05
1.651195457e-05
1.646519517e-05
1.640294214e-05
1.60980108e-05
1.608540098e-05
1.605765574e-05
1.601560919e-05
1.59595997e-05
1.567000968e-05
1.565864903e-05
1.563364229e-05
1.559572762e-05
1.55451774e-05
1.527846793e-05
1.526818827e-05
1.52455629e-05
1.52112553e-05
1.516551092e-05
1.49238135e-05
1.491445345e-05
1.489385415e-05
1.486260986e-05
1.482092477e-05
1.45998203e-05
1.459125957e-05
1.457241297e-05
1.454385516e-05
1.45057497e-05
1.430478742e-05
1.429693022e-05
1.427965031e-05
1.425344256e-05
1.421846114e-05
1.403359166e-05
1.402633103e-05
1.401036729e-05
1.398615547e-05
1.395383061e-05
1.378077147e-05
1.377404711e-05
1.375926556e-05
1.373684561e-05
1.370690778e-05
1.354371246e-05
1.353747329e-05
1.352374891e-05
1.350297357e-05
1.347523372e-05
1.331968872e-05
1.331389062e-05
1.330114588e-05
1.328181061e-05
1.32559746e-05
1.31053433e-05
1.309991704e-05
1.308798792e-05
1.306988399e-05
1.304568288e-05
1.289761665e-05
1.289254175e-05
1.288138268e-05
1.28644423e-05
1.284178916e-05
1.269568896e-05
1.269092393e-05
1.268044581e-05
1.266454129e-05
1.264327868e-05
1.2498674e-05
1.249420453e-05
1.248437481e-05
1.24694513e-05
1.244949459e-05
1.230654786e-05
1.230233779e-05
1.229307627e-05
1.227901167e-05
1.226019833e-05
1.211841396e-05
1.211443048e-05
1.210566549e-05
1.209235199e-05
1.207453953e-05
1.193359642e-05
1.192981108e-05
1.192148035e-05
1.190882373e-05
1.189188541e-05
1.175147066e-05
1.174784882e-05
1.173987623e-05
1.172776125e-05
1.171154564e-05
1.157055211e-05
1.15670634e-05
1.155938138e-05
1.154770332e-05
1.153206663e-05
1.138857886e-05
1.138523427e-05
1.137786999e-05
1.136668049e-05
1.135172345e-05
1.120501533e-05
1.120185557e-05
1.119489815e-05
1.118432726e-05
1.11701854e-05
1.102238092e-05
1.101941024e-05
1.101286569e-05
1.100291771e-05
1.098960454e-05
1.084010882e-05
1.083731928e-05
1.083116948e-05
1.082181596e-05
1.080929207e-05
1.065839392e-05
1.065577451e-05
1.064999709e-05
1.064120802e-05
1.062943875e-05
1.047816757e-05
1.047572488e-05
1.047033282e-05
1.046212274e-05
1.04511182e-05
1.030487831e-05
1.030258485e-05
1.029752032e-05
1.028980609e-05
1.027946345e-05
1.015453492e-05
1.015235613e-05
1.014754454e-05
1.014021677e-05
1.013039328e-05
7.694118498e-07
1.881610206e-06
2.506208764e-06
2.808146058e-06
2.887444311e-06
2.895290342e-06
2.932472971e-06
2.967790411e-06
2.96676257e-06
2.937882475e-06
2.886848652e-06
2.837798921e-06
2.782606865e-06
2.714069006e-06
2.648951933e-06
2.601684013e-06
2.576811853e-06
2.612819171e-06
2.879608425e-06
4.109339869e-06
8.972414418e-06
1.588922261e-05
2.074049317e-05
2.247012151e-05
2.192400494e-05
2.028748708e-05
1.857146675e-05
1.711024367e-05
1.607573541e-05
1.551058841e-05
1.538428869e-05
1.561936289e-05
1.610554362e-05
1.670726444e-05
1.729069221e-05
1.774589682e-05
1.800850676e-05
1.806028179e-05
1.791966947e-05
1.763049321e-05
1.724295141e-05
1.68044196e-05
1.635212368e-05
1.591390227e-05
1.550392415e-05
1.512812821e-05
1.478680062e-05
1.447452401e-05
1.418974843e-05
1.392726832e-05
1.368228662e-05
1.345240237e-05
1.323469251e-05
1.302573626e-05
1.282311351e-05
1.262574851e-05
1.24330485e-05
1.224469406e-05
1.205986086e-05
1.187792585e-05
1.169818302e-05
1.151918192e-05
1.133941841e-05
1.115855301e-05
1.097865961e-05
1.079900101e-05
1.061977769e-05
1.044208588e-05
1.027097254e-05
1.012233296e-05
1.410392555e-06
2.644531484e-07
1.66966084e-07
1.139618441e-07
3.127492468e-07
2.473879196e-06
9.704766867e-07
2.795564697e-07
3.035260262e-07
1.011562953e-06
3.027584722e-06
1.045944738e-06
2.814102237e-07
4.807748007e-07
2.011220817e-06
3.216529568e-06
1.335501631e-06
3.181537287e-07
4.95000028e-07
1.589503188e-06
3.169775981e-06
1.534457161e-06
6.075301359e-07
4.609491584e-07
1.251834494e-06
3.1320452e-06
1.877388876e-06
8.014309922e-07
3.926279804e-07
8.101818038e-07
3.207537729e-06
2.415635419e-06
9.165492589e-07
3.27973598e-07
5.690749629e-07
3.254914091e-06
2.614282561e-06
9.330491094e-07
2.753702399e-07
4.402111604e-07
3.217763637e-06
2.62307733e-06
1.002210381e-06
3.788031501e-07
3.674898087e-07
3.160627335e-06
2.566632162e-06
9.784283696e-07
4.579192851e-07
3.133274271e-07
3.059066251e-06
2.528310473e-06
1.013121721e-06
4.91876158e-07
2.615949596e-07
2.980401556e-06
2.481698081e-06
1.080779239e-06
5.29650307e-07
2.131099432e-07
2.894600115e-06
2.37497358e-06
1.078978219e-06
5.704620081e-07
2.244191726e-07
2.779960622e-06
2.259258312e-06
1.076678463e-06
5.906690773e-07
2.71201084e-07
2.681072182e-06
2.177328973e-06
1.087088122e-06
6.077087532e-07
3.048696616e-07
2.607976981e-06
2.118861329e-06
1.104146901e-06
6.255823778e-07
3.346531386e-07
2.560011845e-06
2.080883199e-06
1.123411767e-06
6.472874856e-07
3.650638422e-07
2.572755495e-06
2.044696717e-06
1.130119505e-06
6.716276495e-07
4.061158099e-07
2.8151583e-06
2.147530007e-06
1.189677601e-06
7.425312512e-07
4.697241923e-07
4.078745117e-06
3.38347951e-06
2.406932474e-06
2.035844324e-06
2.276546289e-06
1.008507913e-05
1.239063426e-05
1.60172286e-05
2.317775457e-05
3.663750605e-05
1.809040556e-05
2.277407649e-05
2.899893251e-05
3.665009884e-05
4.449047148e-05
2.271945082e-05
2.637194772e-05
3.023662964e-05
3.365334271e-05
3.576847991e-05
2.365779584e-05
2.548495288e-05
2.69813687e-05
2.780235645e-05
2.766290856e-05
2.243858711e-05
2.30326491e-05
2.325173703e-05
2.297594958e-05
2.215065839e-05
2.041318287e-05
2.038374537e-05
2.006919353e-05
1.945427999e-05
1.855908836e-05
1.852903957e-05
1.827772737e-05
1.783028995e-05
1.72037573e-05
1.64310524e-05
1.700644743e-05
1.670871161e-05
1.628040341e-05
1.57465276e-05
1.513025681e-05
1.59594302e-05
1.568279141e-05
1.532162172e-05
1.489819107e-05
1.442824767e-05
1.539791672e-05
1.516325908e-05
1.486991419e-05
1.453420186e-05
1.416916342e-05
1.527500412e-05
1.50675013e-05
1.482630144e-05
1.45543267e-05
1.425879467e-05
1.550891597e-05
1.531505389e-05
1.509990996e-05
1.486225643e-05
1.460340719e-05
1.598962762e-05
1.579453854e-05
1.558294544e-05
1.53533258e-05
1.510303015e-05
1.658349929e-05
1.63785401e-05
1.615893276e-05
1.591935135e-05
1.565659149e-05
1.716104184e-05
1.694315757e-05
1.670748596e-05
1.644931349e-05
1.616754287e-05
1.761303138e-05
1.738524527e-05
1.713564837e-05
1.686095686e-05
1.655935626e-05
1.787768494e-05
1.764718443e-05
1.738973517e-05
1.710351383e-05
1.678845569e-05
1.793502592e-05
1.770850622e-05
1.745123431e-05
1.716350453e-05
1.68458454e-05
1.780336918e-05
1.758774812e-05
1.733906557e-05
1.705836657e-05
1.674710685e-05
1.752464713e-05
1.732411803e-05
1.708953147e-05
1.68225456e-05
1.652517791e-05
1.714784896e-05
1.696422966e-05
1.674682908e-05
1.649768504e-05
1.621942237e-05
1.671930428e-05
1.655266706e-05
1.635396226e-05
1.612528674e-05
1.586903761e-05
1.627616421e-05
1.612626039e-05
1.594626628e-05
1.573822333e-05
1.550425767e-05
1.584585168e-05
1.571079878e-05
1.554797736e-05
1.53592503e-05
1.514653224e-05
1.544251727e-05
1.53204106e-05
1.517295627e-05
1.500180016e-05
1.480847535e-05
1.507237361e-05
1.496155734e-05
1.48276041e-05
1.467179957e-05
1.449545054e-05
1.473575195e-05
1.463433555e-05
1.451166388e-05
1.436925577e-05
1.420815356e-05
1.442766743e-05
1.433479736e-05
1.422272995e-05
1.409233349e-05
1.394452788e-05
1.414652748e-05
1.406102735e-05
1.395784522e-05
1.383769074e-05
1.370131384e-05
1.388719219e-05
1.380801574e-05
1.37124978e-05
1.360123347e-05
1.347496403e-05
1.364506874e-05
1.357167126e-05
1.34831812e-05
1.338007484e-05
1.326293133e-05
1.341783594e-05
1.334965807e-05
1.326741811e-05
1.317148846e-05
1.306228385e-05
1.320244407e-05
1.313880454e-05
1.306196864e-05
1.29722271e-05
1.286991482e-05
1.299550396e-05
1.293578671e-05
1.286378041e-05
1.277969764e-05
1.268383816e-05
1.279481359e-05
1.273888983e-05
1.267132514e-05
1.259237678e-05
1.250229018e-05
1.259922071e-05
1.254670776e-05
1.24832717e-05
1.240910164e-05
1.232441237e-05
1.24081618e-05
1.235888129e-05
1.229920754e-05
1.222931625e-05
1.214940416e-05
1.222125178e-05
1.217475929e-05
1.211838773e-05
1.205228757e-05
1.197662751e-05
1.203768618e-05
1.199364522e-05
1.194018526e-05
1.187743637e-05
1.180553724e-05
1.185685214e-05
1.181493272e-05
1.17639891e-05
1.170411131e-05
1.163541015e-05
1.167802491e-05
1.163787341e-05
1.158902091e-05
1.153154574e-05
1.146559188e-05
1.149976509e-05
1.146109461e-05
1.141409515e-05
1.135889626e-05
1.129560871e-05
1.13209047e-05
1.128382784e-05
1.123881125e-05
1.118613505e-05
1.11259052e-05
1.11410755e-05
1.110619713e-05
1.106375774e-05
1.101390546e-05
1.095678223e-05
1.096225685e-05
1.092942042e-05
1.0889369e-05
1.084222732e-05
1.078811976e-05
1.078362324e-05
1.075272111e-05
1.071493071e-05
1.067036844e-05
1.061915233e-05
1.060539369e-05
1.057639427e-05
1.054083707e-05
1.049888882e-05
1.04506498e-05
1.042867221e-05
1.040153888e-05
1.036818253e-05
1.032874507e-05
1.028329023e-05
1.02583711e-05
1.023280802e-05
1.020135284e-05
1.016414876e-05
1.012130413e-05
1.011039723e-05
1.008620391e-05
1.00564163e-05
1.002115882e-05
9.980567227e-06
3.731339031e-06
3.949499908e-07
8.28069912e-08
3.961081548e-08
3.130667406e-08
2.893052688e-08
2.810117795e-08
2.781164176e-08
2.771872101e-08
2.768586042e-08
2.766257676e-08
2.763090817e-08
2.759481329e-08
2.756457321e-08
2.75531053e-08
2.757669015e-08
2.755112122e-08
2.747595142e-08
2.743437013e-08
2.741009632e-08
2.739253558e-08
2.73775097e-08
2.73636586e-08
2.735071407e-08
2.733870499e-08
2.73276845e-08
2.731754184e-08
2.730812842e-08
2.729943459e-08
2.729147542e-08
2.728408369e-08
2.727712053e-08
2.727058106e-08
2.726447025e-08
2.725886938e-08
2.725373557e-08
2.724901896e-08
2.724461852e-08
2.724054259e-08
2.723675329e-08
2.723322665e-08
2.722991957e-08
2.72267483e-08
2.722362556e-08
2.722072273e-08
2.721827808e-08
2.721615894e-08
2.721428441e-08
2.721254223e-08
2.721099349e-08
2.720957028e-08
2.720830557e-08
2.720708224e-08
2.720580127e-08
2.720157763e-08
2.717454153e-08
2.701336851e-08
2.629357953e-08
2.385800801e-08
2.062578071e-08
3.135779599e-06
1.080440672e-06
2.937928836e-07
1.34420002e-07
1.029725624e-07
9.415450864e-08
9.099492474e-08
8.968895638e-08
8.912453361e-08
8.885214244e-08
8.868727065e-08
8.855059791e-08
8.84224445e-08
8.830993569e-08
8.824269471e-08
8.826238181e-08
8.818187611e-08
8.798119641e-08
8.786463406e-08
8.779360493e-08
8.774168068e-08
8.769675182e-08
8.765535497e-08
8.761709541e-08
8.758278764e-08
8.755188409e-08
8.752324419e-08
8.749704514e-08
8.747417689e-08
8.745396395e-08
8.743525447e-08
8.741760146e-08
8.740157451e-08
8.738793278e-08
8.737643419e-08
8.736610395e-08
8.735686917e-08
8.734788171e-08
8.73401851e-08
8.733246713e-08
8.732669545e-08
8.732207378e-08
8.731692268e-08
8.731224162e-08
8.730719852e-08
8.730351589e-08
8.730004478e-08
8.72981104e-08
8.729636512e-08
8.729501952e-08
8.729364838e-08
8.729307122e-08
8.729172268e-08
8.729143521e-08
8.72835775e-08
8.72391485e-08
8.702951737e-08
8.632050651e-08
8.482394802e-08
8.368222637e-08
2.964596681e-06
1.631250943e-06
4.640349593e-07
2.278182104e-07
1.81091257e-07
1.677420047e-07
1.627600006e-07
1.605087032e-07
1.59378748e-07
1.587572274e-07
1.583715892e-07
1.580868175e-07
1.578440482e-07
1.576288308e-07
1.574670555e-07
1.574147372e-07
1.572656942e-07
1.56985845e-07
1.568178377e-07
1.567101459e-07
1.566249052e-07
1.565458857e-07
1.564706321e-07
1.564007995e-07
1.563377233e-07
1.562808715e-07
1.562299546e-07
1.56184368e-07
1.561434235e-07
1.561071932e-07
1.560750938e-07
1.560465402e-07
1.560223716e-07
1.560020081e-07
1.559842005e-07
1.559693915e-07
1.559575334e-07
1.559464732e-07
1.559364564e-07
1.559268495e-07
1.559200673e-07
1.559146857e-07
1.559103469e-07
1.559080558e-07
1.559060242e-07
1.559056935e-07
1.559051698e-07
1.559069751e-07
1.559082666e-07
1.559113365e-07
1.55914222e-07
1.559193434e-07
1.559223506e-07
1.559287304e-07
1.559277553e-07
1.559132833e-07
1.558550868e-07
1.558253702e-07
1.564615812e-07
1.577270899e-07
4.739984252e-06
2.291436642e-06
6.41153479e-07
2.882157409e-07
2.364141205e-07
2.23298187e-07
2.182870533e-07
2.158286435e-07
2.144678304e-07
2.136652197e-07
2.131651628e-07
2.128208613e-07
2.125522717e-07
2.123237547e-07
2.121434742e-07
2.120589237e-07
2.119174293e-07
2.116954509e-07
2.115732772e-07
2.11497669e-07
2.1143113e-07
2.113614243e-07
2.112901973e-07
2.112221983e-07
2.11160603e-07
2.111053465e-07
2.110563169e-07
2.110132354e-07
2.109752571e-07
2.109422973e-07
2.109138525e-07
2.108893628e-07
2.108693654e-07
2.108532942e-07
2.108401937e-07
2.108307009e-07
2.108243193e-07
2.10818871e-07
2.10814258e-07
2.108105775e-07
2.108090165e-07
2.108085528e-07
2.108096698e-07
2.108128003e-07
2.108168295e-07
2.108224365e-07
2.108280842e-07
2.108353573e-07
2.108419894e-07
2.108509576e-07
2.108598769e-07
2.108711242e-07
2.108802166e-07
2.108940334e-07
2.109065334e-07
2.109396467e-07
2.110517593e-07
2.115539142e-07
2.132118772e-07
2.15185217e-07
6.766709051e-06
3.760700352e-06
1.391962303e-06
4.012740648e-07
2.731651039e-07
2.551234604e-07
2.500575717e-07
2.478103587e-07
2.465774812e-07
2.458466214e-07
2.454033983e-07
2.451274227e-07
2.449470237e-07
2.448219323e-07
2.447444425e-07
2.447359916e-07
2.447105509e-07
2.446573108e-07
2.446639784e-07
2.446833356e-07
2.446872573e-07
2.446715836e-07
2.446440267e-07
2.446131709e-07
2.445839656e-07
2.445579008e-07
2.445353799e-07
2.445163646e-07
2.445005427e-07
2.444878538e-07
2.444779107e-07
2.444704489e-07
2.44465733e-07
2.444635062e-07
2.444631872e-07
2.44465167e-07
2.44469006e-07
2.444733825e-07
2.44478097e-07
2.444835239e-07
2.444900679e-07
2.444970102e-07
2.445049044e-07
2.445139334e-07
2.445235765e-07
2.44534168e-07
2.445449449e-07
2.445563527e-07
2.445673352e-07
2.445799886e-07
2.445927087e-07
2.446070759e-07
2.446201862e-07
2.446376703e-07
2.446596574e-07
2.447172798e-07
2.448922156e-07
2.454751436e-07
2.469345559e-07
2.484218289e-07
3.037324674e-06
4.888994527e-06
2.908620215e-06
9.510555017e-07
3.472269092e-07
2.767308406e-07
2.659695073e-07
2.629149815e-07
2.616184832e-07
2.609611664e-07
2.606096198e-07
2.604232044e-07
2.603304166e-07
2.602950824e-07
2.603074789e-07
2.603780509e-07
2.604731703e-07
2.605839058e-07
2.607232633e-07
2.608467991e-07
2.6093157e-07
2.609795067e-07
2.610036402e-07
2.61016326e-07
2.610245399e-07
2.610315155e-07
2.610385757e-07
2.610460954e-07
2.61054157e-07
2.610629652e-07
2.610723428e-07
2.61082268e-07
2.61092923e-07
2.611042732e-07
2.611160292e-07
2.611284274e-07
2.611412704e-07
2.611540653e-07
2.611667288e-07
2.611795154e-07
2.611925594e-07
2.612054284e-07
2.612184585e-07
2.612316492e-07
2.612447781e-07
2.612581385e-07
2.612715813e-07
2.612851477e-07
2.612983001e-07
2.613119738e-07
2.613254835e-07
2.613398526e-07
2.613537498e-07
2.613710501e-07
2.613950721e-07
2.614509871e-07
2.616011152e-07
2.620201762e-07
2.628980994e-07
2.637066829e-07
1.653011325e-06
6.681851813e-06
4.993813766e-06
2.783320247e-06
7.567262588e-07
3.238324363e-07
2.779411445e-07
2.701758276e-07
2.679085495e-07
2.670115681e-07
2.666169026e-07
2.664461619e-07
2.663866598e-07
2.663912606e-07
2.664467623e-07
2.665594216e-07
2.667262441e-07
2.66936925e-07
2.671646751e-07
2.673657654e-07
2.675163597e-07
2.676178976e-07
2.676851844e-07
2.677330108e-07
2.677707025e-07
2.678030661e-07
2.678322646e-07
2.678592628e-07
2.67884608e-07
2.67908644e-07
2.679315319e-07
2.679534665e-07
2.679746207e-07
2.679951061e-07
2.680148993e-07
2.68034146e-07
2.680528507e-07
2.680709196e-07
2.680883766e-07
2.68105364e-07
2.681219495e-07
2.681379848e-07
2.681536375e-07
2.68168901e-07
2.681836963e-07
2.681981731e-07
2.682123467e-07
2.682263163e-07
2.682398685e-07
2.682532871e-07
2.682663537e-07
2.682796867e-07
2.682929498e-07
2.683087933e-07
2.683310762e-07
2.683762849e-07
2.684806641e-07
2.68724541e-07
2.691608624e-07
2.695290141e-07
1.0823709e-06
4.511816658e-06
6.124983318e-06
5.029867085e-06
2.161326804e-06
5.336204485e-07
3.02983042e-07
2.765558137e-07
2.710936498e-07
2.69362647e-07
2.68697442e-07
2.684361772e-07
2.683531794e-07
2.683625716e-07
2.684362416e-07
2.685719016e-07
2.687762968e-07
2.690359603e-07
2.693097121e-07
2.695566041e-07
2.697514136e-07
2.698919918e-07
2.699912167e-07
2.700644176e-07
2.701225722e-07
2.70171837e-07
2.702153103e-07
2.702545537e-07
2.70290497e-07
2.703237375e-07
2.703546806e-07
2.703836595e-07
2.704109266e-07
2.704366961e-07
2.704610961e-07
2.704842842e-07
2.705063619e-07
2.70527389e-07
2.705474509e-07
2.70566651e-07
2.705850604e-07
2.70602676e-07
2.706195939e-07
2.706358557e-07
2.70651474e-07
2.706665136e-07
2.706809838e-07
2.70694978e-07
2.707084744e-07
2.707215793e-07
2.707342826e-07
2.707469567e-07
2.707598009e-07
2.707748307e-07
2.707956139e-07
2.708327056e-07
2.709050741e-07
2.710445019e-07
2.712572657e-07
2.714193789e-07
7.231691267e-07
2.324492764e-06
7.170114485e-06
7.207874948e-06
5.18111781e-06
1.502227361e-06
4.026573794e-07
2.904111741e-07
2.74734409e-07
2.708432235e-07
2.695238076e-07
2.690271488e-07
2.688555877e-07
2.688362314e-07
2.689084513e-07
2.690547469e-07
2.692788675e-07
2.695628116e-07
2.698602421e-07
2.701330788e-07
2.703564542e-07
2.705251169e-07
2.706486572e-07
2.70741324e-07
2.708147159e-07
2.70876034e-07
2.709292485e-07
2.709765548e-07
2.710192752e-07
2.710582718e-07
2.710941631e-07
2.711274086e-07
2.711583581e-07
2.711873051e-07
2.712144621e-07
2.712400288e-07
2.712641569e-07
2.712869736e-07
2.713085934e-07
2.713291243e-07
2.713486546e-07
2.713672422e-07
2.713849689e-07
2.714018935e-07
2.714180632e-07
2.714335325e-07
2.714483313e-07
2.714625198e-07
2.7147613e-07
2.714892352e-07
2.715019194e-07
2.715144959e-07
2.715274865e-07
2.715426727e-07
2.715635103e-07
2.715974142e-07
2.716550411e-07
2.717489134e-07
2.718725092e-07
2.719544251e-07
5.397923404e-07
1.50047913e-06
6.148638939e-06
8.59831865e-06
7.838113853e-06
4.064011958e-06
8.175604268e-07
3.291733828e-07
2.817359489e-07
2.72844424e-07
2.702314645e-07
2.692958307e-07
2.689551564e-07
2.688695431e-07
2.689202195e-07
2.690652709e-07
2.692977988e-07
2.695938662e-07
2.699045553e-07
2.701935847e-07
2.704367941e-07
2.70626991e-07
2.707707492e-07
2.708804002e-07
2.709672511e-07
2.710390576e-07
2.711004974e-07
2.711543661e-07
2.712024225e-07
2.712458387e-07
2.712854479e-07
2.71321854e-07
2.713555161e-07
2.71386796e-07
2.714159778e-07
2.714433e-07
2.714689573e-07
2.714931124e-07
2.715159058e-07
2.7153746e-07
2.715578808e-07
2.715772551e-07
2.715956676e-07
2.716131885e-07
2.716298783e-07
2.716457945e-07
2.716609837e-07
2.716755008e-07
2.716893967e-07
2.717027468e-07
2.717156859e-07
2.717285609e-07
2.717421158e-07
2.717581885e-07
2.717802853e-07
2.718143806e-07
2.718676751e-07
2.719456417e-07
2.720379022e-07
2.720896118e-07
4.197604351e-07
9.18861377e-07
3.23229063e-06
9.669707315e-06
1.039454925e-05
7.307531521e-06
1.893498837e-06
4.398158613e-07
2.958256441e-07
2.759251587e-07
2.711232726e-07
2.695576729e-07
2.689909424e-07
2.688143167e-07
2.688287211e-07
2.689622522e-07
2.69194398e-07
2.694947598e-07
2.698123259e-07
2.70111695e-07
2.70369319e-07
2.705767929e-07
2.707382378e-07
2.708638417e-07
2.709639539e-07
2.710463286e-07
2.711160579e-07
2.711764299e-07
2.712296497e-07
2.712772442e-07
2.713202974e-07
2.713595911e-07
2.713957067e-07
2.714290894e-07
2.714600893e-07
2.7148899e-07
2.715160255e-07
2.7154139e-07
2.715652492e-07
2.715877445e-07
2.71608998e-07
2.716291145e-07
2.716481873e-07
2.716662972e-07
2.716835146e-07
2.716999039e-07
2.717155218e-07
2.717304273e-07
2.717446852e-07
2.717583902e-07
2.71771725e-07
2.717851156e-07
2.717994969e-07
2.718168778e-07
2.718408447e-07
2.718766869e-07
2.719299692e-07
2.720031232e-07
2.720837368e-07
2.721214544e-07
3.42675378e-07
6.910823296e-07
2.077838249e-06
9.861481721e-06
1.310398659e-05
1.076481907e-05
4.165326604e-06
7.389828286e-07
3.295736829e-07
2.816374865e-07
2.72557549e-07
2.6999099e-07
2.69099877e-07
2.687932742e-07
2.687504688e-07
2.688590787e-07
2.690809181e-07
2.693777795e-07
2.696960227e-07
2.70000299e-07
2.70267466e-07
2.704882697e-07
2.706648202e-07
2.708052413e-07
2.709185322e-07
2.710119267e-07
2.710905313e-07
2.711579143e-07
2.712166539e-07
2.712686387e-07
2.713152456e-07
2.713574722e-07
2.713960499e-07
2.714315268e-07
2.714643266e-07
2.71494786e-07
2.715231794e-07
2.71549734e-07
2.715746411e-07
2.715980632e-07
2.716201395e-07
2.716409897e-07
2.716607179e-07
2.716794156e-07
2.716971626e-07
2.717140321e-07
2.717300893e-07
2.71745401e-07
2.717600477e-07
2.717741522e-07
2.717879552e-07
2.718019864e-07
2.718173624e-07
2.71836274e-07
2.7186234e-07
2.71900382e-07
2.719548782e-07
2.720264034e-07
2.721010034e-07
2.721292045e-07
3.001774927e-07
5.462809679e-07
1.422135238e-06
6.139286373e-06
1.50683876e-05
1.425496934e-05
7.135770007e-06
1.449281017e-06
4.011124185e-07
2.921489536e-07
2.748416218e-07
2.706885429e-07
2.693366022e-07
2.688496425e-07
2.687245089e-07
2.68793325e-07
2.689948197e-07
2.692802587e-07
2.695922525e-07
2.698952402e-07
2.701662208e-07
2.70395412e-07
2.705833549e-07
2.707363181e-07
2.708617978e-07
2.709661207e-07
2.710539836e-07
2.711289054e-07
2.711936456e-07
2.71250383e-07
2.713007877e-07
2.713461011e-07
2.713872344e-07
2.714248622e-07
2.714594958e-07
2.714915348e-07
2.71521299e-07
2.71549051e-07
2.715750094e-07
2.71599359e-07
2.71622257e-07
2.71643838e-07
2.716642186e-07
2.716835008e-07
2.717017745e-07
2.717191218e-07
2.717356165e-07
2.717513366e-07
2.717663813e-07
2.717809109e-07
2.717952357e-07
2.718100011e-07
2.718264929e-07
2.718470507e-07
2.718752509e-07
2.719154689e-07
2.719712535e-07
2.720417211e-07
2.721117085e-07
2.721313651e-07
2.650705569e-07
4.582235857e-07
1.060170454e-06
3.711094827e-06
1.76793019e-05
1.785388205e-05
1.040486564e-05
2.741724466e-06
5.437745756e-07
3.109770005e-07
2.782056516e-07
2.716003395e-07
2.696616846e-07
2.689695251e-07
2.687530163e-07
2.687754712e-07
2.689504947e-07
2.692183571e-07
2.695177898e-07
2.698129087e-07
2.700811416e-07
2.70312551e-07
2.705067022e-07
2.706683362e-07
2.708035225e-07
2.709174966e-07
2.71014211e-07
2.710967642e-07
2.711677997e-07
2.712296035e-07
2.712840612e-07
2.713326421e-07
2.713764493e-07
2.714163021e-07
2.714528153e-07
2.714864614e-07
2.71517613e-07
2.715465717e-07
2.715735857e-07
2.715988633e-07
2.716225808e-07
2.716448887e-07
2.716659168e-07
2.716857785e-07
2.717045737e-07
2.71722393e-07
2.717393211e-07
2.717554498e-07
2.717709019e-07
2.717858843e-07
2.718007862e-07
2.718163711e-07
2.718340759e-07
2.718563388e-07
2.718866233e-07
2.719288365e-07
2.719856607e-07
2.72054974e-07
2.721206684e-07
2.721319356e-07
2.332952898e-07
4.074581448e-07
9.067276463e-07
3.384001309e-06
2.118971522e-05
2.154180721e-05
1.313227509e-05
4.464730103e-06
8.287490937e-07
3.509261391e-07
2.844049692e-07
2.731321052e-07
2.702262657e-07
2.692219184e-07
2.688714281e-07
2.68826544e-07
2.689629689e-07
2.692047858e-07
2.694843546e-07
2.697645088e-07
2.700228002e-07
2.702495279e-07
2.704436208e-07
2.706086847e-07
2.707496017e-07
2.70870535e-07
2.709745325e-07
2.710639904e-07
2.711411168e-07
2.712080381e-07
2.71266683e-07
2.713186636e-07
2.713652463e-07
2.714073929e-07
2.714458286e-07
2.714811069e-07