/*--------------------------------*- C++ -*----------------------------------*\
  =========                 |
  \\      /  F ield         | OpenFOAM: The Open Source CFD Toolbox
   \\    /   O peration     | Website:  https://openfoam.org
    \\  /    A nd           | Version:  10
     \\/     M anipulation  |
\*---------------------------------------------------------------------------*/
FoamFile
{
    format      ascii;
    class       volScalarField;
    location    "0.02498436188";
    object      H2O_0;
}
// * * * * * * * * * * * * * * * * * * * * * * * * * * * * * * * * * * * * * //

dimensions      [0 0 0 0 0 0 0];

internalField   nonuniform List<scalar> 
5170
(
2.498660456e-09
2.494157863e-09
2.464718568e-09
2.25693174e-09
1.780541735e-10
5.052139437e-09
5.038105706e-09
4.975583702e-09
4.656815959e-09
2.853631973e-09
7.589101482e-09
7.56592145e-09
7.474622319e-09
7.094575976e-09
5.598986345e-09
1.009833543e-08
1.006705511e-08
9.954305433e-09
9.549762775e-09
8.359500432e-09
1.257884679e-08
1.254086589e-08
1.241482291e-08
1.201574652e-08
1.112608139e-08
1.502982465e-08
1.498759524e-08
1.485666229e-08
1.449056838e-08
1.389873193e-08
1.74532403e-08
1.740894309e-08
1.728125702e-08
1.69747943e-08
1.667800092e-08
1.985332246e-08
1.980996396e-08
1.969322591e-08
1.946834879e-08
1.946516892e-08
2.223392255e-08
2.219391896e-08
2.209637183e-08
2.197420046e-08
2.226210772e-08
2.459922109e-08
2.456432531e-08
2.449143437e-08
2.449544773e-08
2.507120923e-08
2.695160888e-08
2.692371265e-08
2.688051215e-08
2.703345835e-08
2.789257612e-08
2.929154838e-08
2.9272973e-08
2.926972495e-08
2.95877903e-08
3.072349176e-08
3.161990484e-08
3.161297952e-08
3.166114181e-08
3.215854974e-08
3.356107557e-08
3.393714627e-08
3.394435714e-08
3.405425822e-08
3.474516782e-08
3.640210291e-08
3.624329361e-08
3.626766883e-08
3.644915025e-08
3.734565942e-08
3.924258183e-08
3.853770121e-08
3.858263832e-08
3.884912301e-08
3.995984124e-08
4.207516912e-08
4.082040423e-08
4.088967538e-08
4.125143557e-08
4.258220162e-08
4.490175597e-08
4.309185295e-08
4.318997345e-08
4.36642111e-08
4.522443973e-08
4.774564388e-08
4.537573428e-08
4.557814617e-08
4.672033056e-08
5.247422158e-08
6.92216037e-08
5.455681759e-08
8.657620793e-08
3.592886925e-07
2.252071986e-06
1.074253699e-05
0.09523654404
0.09522831275
0.09522774392
0.09522152895
0.09521797224
0.09579645526
0.09572721914
0.09572824404
0.09572609811
0.09580563238
0.09609149397
0.09601196843
0.09601350132
0.09603250867
0.09612702624
0.09625989781
0.09618646501
0.0961860488
0.09621956304
0.09630381437
0.09636911469
0.09630312658
0.0963020329
0.09633729609
0.0964175925
0.09643610621
0.09638283408
0.09637845027
0.0964167055
0.09648585829
0.09649650095
0.09643894983
0.09643477771
0.09647281407
0.09654262299
0.09654172876
0.09649250881
0.09648706569
0.09651864597
0.09659926259
0.09659121994
0.09653400513
0.0965286865
0.09657064201
0.09664615427
0.09663535895
0.09658370431
0.09657576597
0.09661656992
0.09667856032
0.09666805228
0.09662501606
0.09661730395
0.09665420329
0.09670236127
0.0966916119
0.0966586265
0.09665285608
0.09668179405
0.09672308467
0.09671156964
0.0966820553
0.09667859955
0.09670614803
0.0967426668
0.09673057877
0.09670396905
0.09670209052
0.09672664081
0.09676017397
0.09674837034
0.09672310226
0.09672203223
0.09674514127
0.09677579137
0.09676438521
0.09674105416
0.09674050406
0.09676187233
0.09678929487
0.09677866603
0.09675781518
0.09675773242
0.09677717812
0.09680129288
0.09679073017
0.09677316991
0.09677365668
0.09679084054
0.0968116319
0.09681004202
0.09678897176
0.09678779623
0.09680042045
0.0968152294
0.09800218816
0.09701732487
0.09676617605
0.0966287283
0.09638911017
3.126122906e-07
2.099247787e-06
3.168263446e-05
0.0004719859039
0.006322526387
1.499372651e-06
9.838246759e-06
0.0001197315687
0.00125743151
0.009602102284
4.907915621e-06
2.954953885e-05
0.0002958851988
0.002352126955
0.01212660154
1.279662008e-05
7.024485687e-05
0.0005931077787
0.003728664233
0.01423770915
2.908952385e-05
0.0001457443595
0.001053248818
0.005321232979
0.01604297316
6.131981273e-05
0.0002832658182
0.001733061203
0.007030852852
0.01768775039
0.0001219194525
0.0005182176807
0.002653404918
0.008798641136
0.01933133841
0.0002297517827
0.0008900555398
0.003805810127
0.01059752614
0.02099555226
0.0004156265314
0.001450100702
0.005172628006
0.01240349882
0.02263401536
0.0007272824586
0.002249083374
0.006727221346
0.01423196714
0.02426945563
0.001240356969
0.003348090216
0.008454336724
0.01609418008
0.02591151905
0.002103197202
0.004788015871
0.01032194337
0.01801272342
0.02759043009
0.003493488368
0.006571324177
0.01233899666
0.02000859953
0.02933697798
0.0053843584
0.008661027937
0.01450329691
0.02208110177
0.03113673901
0.007928406958
0.01114153268
0.01687932947
0.02427412068
0.0330240222
0.01096708997
0.01398672816
0.01951111023
0.02665617532
0.03506227084
0.01457830908
0.01734879559
0.02255537306
0.02934795285
0.03733679479
0.01884434791
0.02130116072
0.02607798032
0.03243831999
0.03999137188
0.02345125937
0.0256277115
0.02999448838
0.03593787253
0.04306714786
0.02838476974
0.03030569156
0.03418645316
0.0394537164
0.04568532694
0.0333680229
0.03485892343
0.03781864114
0.0416861308
0.04599839982
0.03684546279
0.03762256938
0.03915810187
0.04110652217
0.04314530783
0.03632991135
0.03658254661
0.03705518241
0.03759041048
0.03802829044
0.03248558654
0.03247978003
0.032422336
0.03225482972
0.03191733951
0.02714270179
0.02704635124
0.02680846093
0.0264172195
0.02586437019
0.02174085481
0.02163442068
0.02138799928
0.02100281082
0.02048330481
0.01733878422
0.01724979251
0.01704399384
0.01672689513
0.01630691844
0.01382790036
0.01375897325
0.013600793
0.01335891404
0.01304110553
0.01110888602
0.01105767765
0.01094075534
0.0107626084
0.01052922838
0.009033877461
0.008996618057
0.008911816275
0.008782795475
0.008613840598
0.00746311015
0.007436218594
0.007375153565
0.007282260484
0.007160478827
0.006279496598
0.006260031085
0.006215907661
0.006148756189
0.006060547491
0.005389562388
0.005375276363
0.005342963154
0.005293758714
0.005228973859
0.004721296625
0.004710568098
0.004686368442
0.004649510566
0.004600869492
0.004220156951
0.004211851523
0.00419318777
0.004164770469
0.004127190717
0.003844298573
0.003837643257
0.003822753018
0.003800100799
0.003770094812
0.003560824297
0.003555302348
0.003543005254
0.003524320817
0.003499539819
0.003343743122
0.003339018413
0.003328541342
0.003312643019
0.003291538803
0.003173007731
0.003168865694
0.003159712992
0.003145840166
0.003127413434
0.003033821984
0.003030127615
0.003021985056
0.003009653749
0.002993267092
0.002915809851
0.002912476921
0.002905143836
0.002894044323
0.002879288901
0.00281206378
0.002809035365
0.002802379266
0.002792307088
0.002778912672
0.002718191564
0.002715427381
0.002709355716
0.002700168526
0.002687946831
0.002631501905
0.002628971493
0.002623414739
0.002615006143
0.00260381648
0.002550372971
0.002548051478
0.002542954015
0.002535239377
0.002524969858
0.002473820267
0.002471686712
0.002467001829
0.002459910374
0.002450467488
0.0024012234
0.002399259511
0.002394946921
0.002388417765
0.00237972104
0.002332165286
0.002330354999
0.002326379317
0.002320359094
0.002312338019
0.002266344493
0.002264673523
0.002261003458
0.00225544497
0.002248037126
0.002203520594
0.002201976216
0.002198583807
0.002193444917
0.002186594564
0.002143482223
0.0021420529
0.002138913038
0.002134155941
0.002127813072
0.002086079938
0.002084755566
0.002081845851
0.002077436719
0.002071556508
0.002031131608
0.002029902895
0.002027203105
0.00202311143
0.002017653456
0.001978487258
0.001977345919
0.001974837868
0.001971036237
0.001965964174
0.001928008091
0.001926946672
0.001924614051
0.001921077845
0.00191635904
0.001879567353
0.001878579136
0.001876407197
0.001873114157
0.001868719084
0.001833049973
0.001832128876
0.001830104306
0.001827034331
0.001822936308
0.001788349241
0.00178748974
0.001785600418
0.001782735204
0.001778909933
0.001745365035
0.001744562135
0.001742797122
0.001740120147
0.00173654568
0.001703996773
0.001703245928
0.00170159524
0.001699091413
0.001695747696
0.001664147992
0.001663445123
0.001661899821
0.001659555626
0.0016564247
0.001625716158
0.001625057557
0.001623609484
0.001621412582
0.00161847803
0.001588619317
0.001588001756
0.001586643837
0.001584583532
0.001581831141
0.001552771908
0.001552192333
0.001550917841
0.001548983934
0.001546400103
0.001518131732
0.001517587567
0.00151639087
0.001514574849
0.001512148267
0.001484619727
0.001484108405
0.001482983846
0.001481277148
0.001478996411
0.001452265084
0.001451784493
0.001450727468
0.001449123143
0.001446979003
0.001420994295
0.001420541907
0.001419546853
0.001418036487
0.001416017768
0.001391309885
0.001390883761
0.001389946494
0.001388523787
0.001386622077
0.001365839842
0.001365435014
0.001364544528
0.001363192741
0.001361385673
0.02306514894
0.02401667449
0.02476727997
0.02560987501
0.02650420518
0.0274804004
0.02859925238
0.02982097196
0.0310491982
0.03231140344
0.03361361301
0.03498454603
0.03645136949
0.03796151323
0.03956159208
0.04130413215
0.04324955961
0.04560690917
0.04840348003
0.05023156792
0.04892411932
0.04441311386
0.03820899531
0.03159934757
0.02543071297
0.02008730145
0.01599258025
0.01280450456
0.01035558545
0.008487884391
0.00706934287
0.005994176394
0.005179880601
0.004563684428
0.004098162088
0.003746652837
0.003479961564
0.003274697776
0.003112589185
0.002980003742
0.002867294689
0.002767993299
0.002677964386
0.002594665291
0.002516563758
0.002442733044
0.002372594178
0.002305762117
0.002241961768
0.002180974586
0.002122607833
0.002066729667
0.002013172071
0.001961798662
0.00191248279
0.001865108015
0.001819568644
0.001775765832
0.001733607211
0.001692998471
0.001653850065
0.001616064578
0.001579567283
0.001544274698
0.001510152068
0.001477120064
0.001445214894
0.001414356735
0.001385057137
0.001359898407
0.05664101793
0.1104832887
0.09646637343
0.08626983108
0.06367694463
0.05018317502
0.09360306867
0.106167847
0.08239384749
0.05090806828
0.04718833674
0.08322791086
0.1137705576
0.08597390161
0.04882183662
0.04561675507
0.07873149783
0.1156679488
0.09359985484
0.05785088306
0.04476460879
0.07535601332
0.1095968109
0.1019732212
0.07019793452
0.0443555894
0.07255717551
0.1033959222
0.1091227131
0.08161623584
0.04431094965
0.07047238295
0.09910152196
0.1141952099
0.09200212812
0.04453646375
0.06889883973
0.0956212219
0.1165945584
0.1004810653
0.04488492011
0.0676509551
0.09259839583
0.114843159
0.1068506967
0.04537670412
0.06676402334
0.09022440408
0.112624239
0.1118428138
0.04600064361
0.06623441935
0.08853593112
0.1106486877
0.1155485914
0.04677641198
0.06600592528
0.08720094889
0.1086297942
0.1181362522
0.04769823595
0.06595453207
0.08587681163
0.1060062138
0.1181192468
0.04867639683
0.06597570385
0.08473219851
0.1038017636
0.1171786576
0.0497633408
0.06617318467
0.08389883435
0.1020770874
0.116141348
0.05100442735
0.06657160412
0.08333920115
0.100623936
0.1149829723
0.05240803153
0.06709879084
0.08293924715
0.09940621894
0.113772534
0.05426360346
0.06828574438
0.08355010059
0.09957128473
0.1134790022
0.0566068535
0.07015748614
0.0851291691
0.100949633
0.113782288
0.05713558329
0.06785012805
0.07856410619
0.08948788992
0.10197647
0.05334065122
0.05895237117
0.06262522497
0.06355922953
0.06095730953
0.04640021675
0.04794871983
0.04746765294
0.04469143851
0.03973299841
0.03863816414
0.03804166693
0.03601530771
0.03268882471
0.02839487927
0.0313085517
0.02997457493
0.02777635913
0.02490402346
0.02163144123
0.02495120646
0.02360211231
0.02171933637
0.01947126949
0.01704136056
0.01962922858
0.01850740448
0.01704883553
0.01537885701
0.0136184182
0.01562459087
0.0147615212
0.01366955174
0.01243931023
0.01115255305
0.01252539768
0.01188356666
0.01108035696
0.01017978157
0.009237596317
0.0101495617
0.009679661208
0.009093300985
0.008435121119
0.00774340506
0.00833758204
0.007995769185
0.007568664448
0.007087083196
0.006577349002
0.006959809661
0.006710984274
0.006399024668
0.006045008073
0.005667002525
0.005913596563
0.005730886342
0.00550098955
0.005238240737
0.004955024144
0.005119395985
0.004982941385
0.004810866532
0.004612902943
0.00439754626
0.004516915021
0.004412486635
0.004280873221
0.00412868688
0.003961770607
0.004060664724
0.003978304397
0.00387492804
0.003755036482
0.003622663835
0.003715429574
0.003648294045
0.003564644567
0.003467556196
0.003359832505
0.0034530659
0.003396550776
0.003326785426
0.003245889382
0.003155835115
0.003250915979
0.003201998385
0.003142180929
0.00307295038
0.002995723579
0.00309118866
0.003047927237
0.002995457739
0.002934851901
0.002867157816
0.002960545061
0.002921705321
0.00287488852
0.002820895284
0.002760528737
0.002849503804
0.002814290597
0.002772018429
0.002723309127
0.002668801044
0.002751682522
0.00271956194
0.002681092886
0.002636776377
0.002587136049
0.002662989191
0.002633578523
0.002598392521
0.002557847201
0.002512383303
0.002580902656
0.002553905372
0.002521614058
0.002484381825
0.002442586447
0.002503903617
0.002479075709
0.002449371001
0.00241509384
0.00237657187
0.00243107516
0.002408207263
0.002380832434
0.002349215555
0.002313643265
0.002361847273
0.002340755659
0.002315489909
0.002286282267
0.002253384727
0.00229584348
0.002276365342
0.002253015444
0.002225997967
0.002195535226
0.002232796666
0.002214786438
0.002193180363
0.002168158596
0.002139917751
0.002172495507
0.002155822457
0.002135806261
0.00211260625
0.002086396722
0.00211475385
0.002099300407
0.002080735875
0.00205920148
0.002034851863
0.002059446219
0.002045106442
0.002027868536
0.002007857934
0.001985212113
0.002006409586
0.001993087715
0.001977063572
0.001958448743
0.001937365651
0.001955512606
0.001943122439
0.001928210305
0.001910875642
0.001891227629
0.001906633087
0.001895096919
0.001881204935
0.001865045909
0.001846717364
0.001859658371
0.001848905807
0.001835950693
0.001820872411
0.001803758201
0.001814486215
0.001804453519
0.001792359819
0.001778276209
0.001762280845
0.001771020674
0.00176164969
0.00175034848
0.001737180816
0.001722216821
0.00172917227
0.001720410397
0.001709839241
0.001697516094
0.001683503947
0.001688849063
0.001680648102
0.001670749666
0.001659205267
0.001646071601
0.001649964171
0.001642281101
0.001633004088
0.001622179585
0.001609858745
0.001612422142
0.001605217526
0.00159651481
0.001586356074
0.001574787534
0.001576150899
0.001569390496
0.001561221031
0.001551680554
0.001540810933
0.001541067696
0.001534718774
0.001527043453
0.001518076391
0.001507855549
0.001507140423
0.001501175704
0.001493961953
0.001485530707
0.001475916432
0.00147428969
0.001468681396
0.001461896045
0.001453962361
0.001444911658
0.001442554014
0.001437279759
0.00143089625
0.001423429488
0.001414907876
0.001411851559
0.001406884143
0.001400870226
0.001393833531
0.001385799935
0.00138269657
0.001378015603
0.001372347044
0.001365712479
0.001358135282
0.001357654911
0.001353204765
0.001347814819
0.001341504926
0.001334296635
0.007620349131
0.000495695214
4.055920702e-05
7.407184668e-06
2.394834198e-06
1.002935731e-06
4.781186175e-07
2.627071329e-07
1.735302571e-07
1.371560843e-07
1.225687595e-07
1.167361723e-07
1.143581e-07
1.133551423e-07
1.129478579e-07
1.128725596e-07
1.127167433e-07
1.124285103e-07
1.122709866e-07
1.121800234e-07
1.121151044e-07
1.120601928e-07
1.12009918e-07
1.11963094e-07
1.119197324e-07
1.118799942e-07
1.118434555e-07
1.118095621e-07
1.117782819e-07
1.117496761e-07
1.117231302e-07
1.116981313e-07
1.116746592e-07
1.11652736e-07
1.116326696e-07
1.116143002e-07
1.115974436e-07
1.115817332e-07
1.115672011e-07
1.115537057e-07
1.115411589e-07
1.115294071e-07
1.115181411e-07
1.115070417e-07
1.114967378e-07
1.114881099e-07
1.114806681e-07
1.114741152e-07
1.114680381e-07
1.114626596e-07
1.114577321e-07
1.114533784e-07
1.114491694e-07
1.114447498e-07
1.114295799e-07
1.113308761e-07
1.107398122e-07
1.080938166e-07
9.912232576e-08
8.722627332e-08
0.01301505562
0.001387415014
0.0001164607207
1.74537702e-05
5.110596993e-06
2.195042879e-06
1.162214706e-06
7.181903728e-07
5.144603187e-07
4.201979572e-07
3.769875836e-07
3.572831768e-07
3.482266227e-07
3.439810732e-07
3.420113159e-07
3.412868032e-07
3.406479108e-07
3.397936268e-07
3.393158448e-07
3.390343417e-07
3.388360028e-07
3.386692575e-07
3.385180631e-07
3.383794022e-07
3.382555983e-07
3.381443531e-07
3.380413279e-07
3.379471554e-07
3.378651569e-07
3.377928217e-07
3.377258987e-07
3.376627292e-07
3.376054188e-07
3.375568216e-07
3.375160755e-07
3.37479535e-07
3.374469261e-07
3.37415162e-07
3.373881411e-07
3.373609593e-07
3.373408954e-07
3.373250543e-07
3.373071824e-07
3.372910183e-07
3.372734412e-07
3.372608514e-07
3.372489886e-07
3.372427652e-07
3.372372142e-07
3.372330579e-07
3.372287698e-07
3.372273789e-07
3.372231253e-07
3.372227862e-07
3.371948675e-07
3.370342532e-07
3.362748453e-07
3.337102137e-07
3.283327823e-07
3.242763681e-07
0.01580266875
0.002195821269
0.0001776623657
2.346492821e-05
6.463068775e-06
2.869220721e-06
1.66196165e-06
1.135517677e-06
8.739561727e-07
7.389276327e-07
6.688366164e-07
6.325925858e-07
6.138942728e-07
6.042055045e-07
5.992102712e-07
5.968462644e-07
5.952802355e-07
5.938267825e-07
5.930178007e-07
5.925377573e-07
5.921895489e-07
5.918866857e-07
5.91607607e-07
5.913526059e-07
5.911240086e-07
5.909187756e-07
5.907353846e-07
5.905714394e-07
5.904243782e-07
5.902944386e-07
5.901794766e-07
5.900773567e-07
5.899911506e-07
5.899187631e-07
5.898556402e-07
5.898033697e-07
5.897617971e-07
5.89723084e-07
5.89688148e-07
5.896546263e-07
5.896313849e-07
5.89613218e-07
5.895987829e-07
5.895917847e-07
5.895856649e-07
5.895857374e-07
5.895850351e-07
5.895928211e-07
5.895986889e-07
5.896109893e-07
5.896225577e-07
5.896422748e-07
5.896542298e-07
5.896785083e-07
5.896761053e-07
5.896256441e-07
5.894206513e-07
5.893363835e-07
5.91719278e-07
5.963943773e-07
0.02454879853
0.005614997645
0.0005228913664
4.01899674e-05
7.806748442e-06
3.241190145e-06
1.963259292e-06
1.424681935e-06
1.1480802e-06
9.948339187e-07
9.07431442e-07
8.572950448e-07
8.286807412e-07
8.124878937e-07
8.034736215e-07
7.987191382e-07
7.959527139e-07
7.940869904e-07
7.931391946e-07
7.92631404e-07
7.922852142e-07
7.919871775e-07
7.917106314e-07
7.914577563e-07
7.912332841e-07
7.910339623e-07
7.908580813e-07
7.907040794e-07
7.90568663e-07
7.904514405e-07
7.903505523e-07
7.902639554e-07
7.901936065e-07
7.901374501e-07
7.900920195e-07
7.900596272e-07
7.900384733e-07
7.900206498e-07
7.900058084e-07
7.899942826e-07
7.899904131e-07
7.899904791e-07
7.89996225e-07
7.900092418e-07
7.900254635e-07
7.900473905e-07
7.900693982e-07
7.900972833e-07
7.901227809e-07
7.901567268e-07
7.901904346e-07
7.902325839e-07
7.902668472e-07
7.903183118e-07
7.90365141e-07
7.904878943e-07
7.909012996e-07
7.92742671e-07
7.988033135e-07
8.060053858e-07
0.03611725476
0.0119286669
0.002097389682
0.0001715224569
1.798619919e-05
4.766052728e-06
2.428178105e-06
1.680461699e-06
1.343789877e-06
1.16504025e-06
1.062182792e-06
1.000807542e-06
9.638838154e-07
9.417035309e-07
9.286270936e-07
9.212701551e-07
9.171973572e-07
9.149808291e-07
9.139929668e-07
9.135756824e-07
9.13363327e-07
9.132051302e-07
9.130621543e-07
9.129336574e-07
9.128228153e-07
9.127283456e-07
9.126487541e-07
9.12582626e-07
9.125282956e-07
9.124853303e-07
9.124522453e-07
9.124280565e-07
9.124137209e-07
9.124083081e-07
9.124097174e-07
9.124193718e-07
9.124356803e-07
9.124538522e-07
9.124731696e-07
9.12494988e-07
9.125207857e-07
9.125479558e-07
9.125785053e-07
9.126131074e-07
9.126498696e-07
9.126900219e-07
9.127307801e-07
9.12773777e-07
9.12815168e-07
9.128625737e-07
9.129101627e-07
9.129636944e-07
9.130126217e-07
9.130774631e-07
9.13158876e-07
9.133706286e-07
9.14011093e-07
9.161390365e-07
9.21456761e-07
9.2687095e-07
0.0489024457
0.02207593373
0.006546990872
0.001012793605
8.598967232e-05
1.203397652e-05
3.852752964e-06
2.124277583e-06
1.542943918e-06
1.287094637e-06
1.155447986e-06
1.080936645e-06
1.036377282e-06
1.009078856e-06
9.92406975e-07
9.825754115e-07
9.770752324e-07
9.742708259e-07
9.730660402e-07
9.72643629e-07
9.725274033e-07
9.725036139e-07
9.725030794e-07
9.725123311e-07
9.725286451e-07
9.725507003e-07
9.725773788e-07
9.726074259e-07
9.7264002e-07
9.726754396e-07
9.727128596e-07
9.727521366e-07
9.727939152e-07
9.728380707e-07
9.72883562e-07
9.729312543e-07
9.729804397e-07
9.730293387e-07
9.730776565e-07
9.731263214e-07
9.731758268e-07
9.732246106e-07
9.732738934e-07
9.733236784e-07
9.73373159e-07
9.734234096e-07
9.734738902e-07
9.7352476e-07
9.735740636e-07
9.736251986e-07
9.736756786e-07
9.737292323e-07
9.73781047e-07
9.73845273e-07
9.739342039e-07
9.741399025e-07
9.7469001e-07
9.762203982e-07
9.794195211e-07
9.823624583e-07
0.06051872176
0.03277383939
0.01387941899
0.003875354623
0.0005201321821
4.684552847e-05
8.357955912e-06
3.149782565e-06
1.878883469e-06
1.428351525e-06
1.231200804e-06
1.131775506e-06
1.076197077e-06
1.043007723e-06
1.022626587e-06
1.010217765e-06
1.003038944e-06
9.992687853e-07
9.975271975e-07
9.968695474e-07
9.967022941e-07
9.967208509e-07
9.968014392e-07
9.969025104e-07
9.970096424e-07
9.971168868e-07
9.972211497e-07
9.973209633e-07
9.974161254e-07
9.975069481e-07
9.975936339e-07
9.976767449e-07
9.977568608e-07
9.978343786e-07
9.979092207e-07
9.979819257e-07
9.980525209e-07
9.981206773e-07
9.981864917e-07
9.982504877e-07
9.983129196e-07
9.983732571e-07
9.984321141e-07
9.984894717e-07
9.985450463e-07
9.985993844e-07
9.986525458e-07
9.987048998e-07
9.987556753e-07
9.988059041e-07
9.988547946e-07
9.989046066e-07
9.989541553e-07
9.990131764e-07
9.990959863e-07
9.992631847e-07
9.996476242e-07
1.000541925e-06
1.002136719e-06
1.00347914e-06
0.07115907082
0.04322665285
0.02281627307
0.009478399934
0.002341836409
0.0002436424088
2.534000471e-05
5.855743092e-06
2.573294044e-06
1.66514133e-06
1.329471023e-06
1.181321483e-06
1.106415321e-06
1.064306832e-06
1.039039218e-06
1.023565256e-06
1.014388883e-06
1.009333948e-06
1.006769334e-06
1.005637829e-06
1.00524318e-06
1.00518414e-06
1.005264601e-06
1.00539979e-06
1.005553638e-06
1.005709743e-06
1.005860472e-06
1.006002638e-06
1.006135596e-06
1.006259747e-06
1.006375813e-06
1.006484704e-06
1.006587225e-06
1.006684124e-06
1.006775866e-06
1.006863034e-06
1.006946008e-06
1.00702502e-06
1.007100391e-06
1.007172508e-06
1.007241639e-06
1.007307779e-06
1.007371286e-06
1.007432319e-06
1.007490929e-06
1.007547356e-06
1.007601633e-06
1.007654107e-06
1.007704704e-06
1.007753817e-06
1.007801416e-06
1.007848876e-06
1.007896969e-06
1.007953167e-06
1.0080308e-06
1.008169025e-06
1.0084379e-06
1.008953532e-06
1.009736828e-06
1.010330559e-06
0.08092031058
0.05282865886
0.0312681743
0.01648415458
0.006630217897
0.001192748224
9.902974541e-05
1.365843407e-05
4.115856554e-06
2.106409597e-06
1.48591133e-06
1.247765586e-06
1.14033567e-06
1.084518233e-06
1.052332068e-06
1.032795475e-06
1.021042821e-06
1.014315224e-06
1.010657848e-06
1.008845581e-06
1.008063024e-06
1.007810444e-06
1.007812532e-06
1.007930179e-06
1.00809525e-06
1.008274176e-06
1.008450829e-06
1.008618279e-06
1.008774335e-06
1.008918957e-06
1.009053004e-06
1.009177562e-06
1.009293675e-06
1.00940233e-06
1.009504284e-06
1.009600267e-06
1.009690845e-06
1.009776494e-06
1.009857645e-06
1.009934702e-06
1.010007999e-06
1.010077754e-06
1.010144275e-06
1.010207782e-06
1.010268456e-06
1.010326501e-06
1.01038203e-06
1.010435265e-06
1.010486327e-06
1.010535488e-06
1.010583068e-06
1.010630236e-06
1.010678956e-06
1.010735891e-06
1.010814031e-06
1.01094118e-06
1.011157098e-06
1.011507705e-06
1.011967172e-06
1.012268863e-06
0.08984463333
0.06225227195
0.03958305396
0.02309581258
0.01162637352
0.003645752213
0.0004081080205
3.569789655e-05
7.23374064e-06
2.841519539e-06
1.718238576e-06
1.338958683e-06
1.184134373e-06
1.109207384e-06
1.067592702e-06
1.042586231e-06
1.027383661e-06
1.018422469e-06
1.013309269e-06
1.010571498e-06
1.009229598e-06
1.008663969e-06
1.008508567e-06
1.008559291e-06
1.00870572e-06
1.008889186e-06
1.009079878e-06
1.009264091e-06
1.009436599e-06
1.009596222e-06
1.009743533e-06
1.009879659e-06
1.010005827e-06
1.010123187e-06
1.01023272e-06
1.010335284e-06
1.0104316e-06
1.010522275e-06
1.010607836e-06
1.010688742e-06
1.010765391e-06
1.010838111e-06
1.010907221e-06
1.010972985e-06
1.011035629e-06
1.011095371e-06
1.011152386e-06
1.01120688e-06
1.011259043e-06
1.011309156e-06
1.011357724e-06
1.011406051e-06
1.011456928e-06
1.01151727e-06
1.011600306e-06
1.011728596e-06
1.011929198e-06
1.01222217e-06
1.012567491e-06
1.012758419e-06
0.09748067995
0.07159962933
0.04830193319
0.03016216629
0.01685734882
0.006940633818
0.00120941578
9.98457397e-05
1.362542768e-05
4.000562968e-06
2.033096182e-06
1.454647794e-06
1.238991216e-06
1.140322116e-06
1.08691318e-06
1.054936493e-06
1.035254061e-06
1.023352335e-06
1.016304044e-06
1.012318702e-06
1.010200642e-06
1.009176607e-06
1.008769037e-06
1.008694534e-06
1.008788764e-06
1.008958603e-06
1.00915384e-06
1.009349747e-06
1.009535769e-06
1.009708465e-06
1.009867591e-06
1.010014112e-06
1.010149335e-06
1.010274554e-06
1.010390923e-06
1.010499443e-06
1.010600966e-06
1.010696215e-06
1.010785807e-06
1.010870275e-06
1.010950079e-06
1.011025611e-06
1.011097224e-06
1.011165222e-06
1.011229868e-06
1.011291406e-06
1.011350049e-06
1.011406018e-06
1.011459557e-06
1.011511021e-06
1.011561094e-06
1.011611378e-06
1.011665381e-06
1.01173068e-06
1.011820833e-06
1.011955861e-06
1.012156714e-06
1.012432162e-06
1.012734697e-06
1.012873641e-06
0.1039767601
0.08015625911
0.05687622378
0.03726644262
0.02193593926
0.01027970101
0.002639640506
0.0002601254487
2.803277751e-05
5.941178601e-06
2.454337507e-06
1.594563437e-06
1.304552893e-06
1.178206316e-06
1.110906674e-06
1.070544937e-06
1.045371392e-06
1.02978692e-06
1.020262662e-06
1.014648409e-06
1.011490357e-06
1.009828713e-06
1.009050543e-06
1.008775839e-06
1.008773419e-06
1.008905354e-06
1.009093006e-06
1.009295059e-06
1.009492245e-06
1.009677065e-06
1.009847629e-06
1.010004377e-06
1.010148555e-06
1.010281557e-06
1.010404689e-06
1.010519096e-06
1.010625762e-06
1.010725523e-06
1.010819091e-06
1.010907077e-06
1.010990004e-06
1.011068322e-06
1.011142424e-06
1.011212654e-06
1.011279311e-06
1.011342673e-06
1.011402984e-06
1.011460495e-06
1.011515508e-06
1.011568485e-06
1.011620328e-06
1.011673031e-06
1.011730789e-06
1.011801875e-06
1.011899971e-06
1.012043335e-06
1.012248809e-06
1.012518206e-06
1.012798381e-06
1.01290155e-06
0.1090776135
0.08758260985
0.0647707036
0.04422970012
0.02686257282
0.01342264899
0.004243738841
0.0005981305036
5.477377192e-05
9.030551885e-06
2.98856004e-06
1.754302574e-06
1.37942363e-06
1.222390567e-06
1.139363777e-06
1.089358622e-06
1.057800085e-06
1.037877229e-06
1.025380426e-06
1.017760508e-06
1.013287826e-06
1.010793325e-06
1.009509778e-06
1.008945186e-06
1.008789539e-06
1.008850428e-06
1.009012796e-06
1.009212487e-06
1.009417209e-06
1.009612833e-06
1.009794482e-06
1.009961461e-06
1.010114696e-06
1.010255595e-06
1.010385583e-06
1.01050595e-06
1.01061781e-06
1.010722118e-06
1.010819683e-06
1.010911196e-06
1.010997247e-06
1.011078345e-06
1.011154927e-06
1.011227379e-06
1.011296039e-06
1.011361217e-06
1.01142319e-06
1.011482253e-06
1.011538775e-06
1.011593362e-06
1.011647176e-06
1.011702648e-06
1.011764615e-06
1.011841919e-06
1.011948075e-06
1.012099647e-06
1.012309948e-06
1.012575318e-06
1.01283822e-06
1.012909011e-06
0.1130593766
0.09406104768
0.07194829941
0.05078027296
0.03148384678
0.01615968482
0.005778842221
0.001135277467
0.000103798996
1.430096267e-05
3.787855389e-06
1.968061381e-06
1.472691486e-06
1.275235163e-06
1.172757237e-06
1.111349506e-06
1.072429496e-06
1.047545367e-06
1.03163062e-06
1.021673774e-06
1.015637778e-06
1.012127155e-06
1.010205382e-06
1.009257504e-06
1.008885415e-06
1.008834871e-06
1.008948148e-06
1.009132751e-06
1.00933891e-06
1.009542762e-06
1.009734594e-06
1.009911595e-06
1.010073929e-06
1.010222828e-06
1.010359773e-06
1.010486178e-06
1.010603291e-06
1.010712183e-06
1.010813764e-06
1.010908811e-06
1.010997984e-06
1.01108185e-06
1.011160898e-06
1.011235557e-06
1.011306202e-06
1.011373177e-06
1.011436798e-06
1.011497413e-06
1.011555481e-06
1.011611782e-06
1.011667777e-06
1.011726339e-06
1.011792883e-06
1.011876624e-06
1.011990647e-06
1.012149732e-06
1.012363903e-06
1.012624865e-06
1.012871652e-06
1.012910453e-06
0.1161124801
0.09957041988
0.07822217593
0.05640455986
0.03502314169
0.01768735142
0.006651378233
0.001706022994
0.000193590341
2.506306105e-05
5.153714905e-06
2.27156115e-06
1.592459625e-06
1.339419785e-06
1.211974307e-06
1.1367085e-06
1.089213408e-06
1.058674517e-06
1.038911049e-06
1.026322379e-06
1.018511472e-06
1.01382648e-06
1.011149946e-06
1.009733816e-06
1.009084118e-06
1.008879548e-06
1.008915828e-06
1.009068544e-06
1.009266975e-06
1.00947455e-06
1.009674587e-06
1.009860864e-06
1.01003208e-06
1.010188963e-06
1.010332907e-06
1.010465396e-06
1.010587793e-06
1.010701286e-06
1.010806888e-06
1.010905462e-06
1.010997741e-06
1.011084355e-06
1.011165847e-06
1.011242689e-06
1.011315294e-06
1.011384043e-06
1.011449299e-06
1.011511478e-06
1.011571151e-06
1.0116293e-06
1.011687706e-06
1.011749675e-06
1.011821097e-06
1.011911362e-06
1.0120329e-06
1.012198642e-06
1.012415515e-06
1.012671313e-06
1.012902473e-06
1.012910459e-06
0.1182744894
0.1039401432
0.08295546517
0.06002056552
0.03610246486
0.01722395434
0.006515827711
0.001994273703
0.0003241862457
4.698871312e-05
7.897985769e-06
2.785028308e-06
1.765323074e-06
1.423337255e-06
1.260353361e-06
1.166950696e-06
1.108875828e-06
1.071602698e-06
1.047365776e-06
1.031766864e-06
1.02192305e-06
1.015893385e-06
1.012347666e-06
1.010383459e-06
1.009398731e-06
1.008998401e-06
1.008928115e-06
1.009029242e-06
1.009207877e-06
1.009412436e-06
1.009617247e-06
1.009811207e-06
1.009990638e-06
1.010155259e-06
1.010306127e-06
1.010444684e-06
1.010572363e-06
1.010690451e-06
1.010800062e-06
1.010902143e-06
1.010997506e-06
1.011086843e-06
1.011170751e-06
1.011249746e-06
1.011324284e-06
1.011394786e-06
1.011461675e-06
1.011525447e-06
1.011586808e-06
1.011646966e-06
1.011708028e-06
1.011773705e-06
1.011850255e-06
1.011947045e-06
1.012075685e-06
1.012247217e-06
1.012465682e-06
1.012715617e-06
1.012931606e-06
1.01291069e-06
0.1189353129
0.105480022