/*--------------------------------*- C++ -*----------------------------------*\
  =========                 |
  \\      /  F ield         | OpenFOAM: The Open Source CFD Toolbox
   \\    /   O peration     | Website:  https://openfoam.org
    \\  /    A nd           | Version:  10
     \\/     M anipulation  |
\*---------------------------------------------------------------------------*/
FoamFile
{
    format      ascii;
    class       volScalarField;
    location    "0.02498436188";
    object      HCCO;
}
// * * * * * * * * * * * * * * * * * * * * * * * * * * * * * * * * * * * * * //

dimensions      [0 0 0 0 0 0 0];

internalField   nonuniform List<scalar> 
5170
(
0
0
0
0
0
0
0
0
0
0
0
0
0
0
0
0
0
0
0
0
0
0
0
0
0
0
0
0
0
0
0
0
0
0
0
0
0
0
0
0
0
0
0
0
0
0
0
0
0
0
0
0
0
0
0
0
0
0
0
0
0
0
0
0
0
0
0
0
0
0
0
0
0
0
0
0
0
0
0
0
0
0
0
0
0
0
0
0
0
0
0
0
0
0
0
0
0
0
0
0
5.201065467e-18
9.963741919e-20
0
1.162171735e-19
1.134170118e-19
9.27743141e-18
0
0
0
1.194837055e-20
1.695324463e-18
1.109197871e-18
9.438740049e-20
0
0
2.820216131e-19
2.062531259e-18
0
0
0
1.445641411e-17
1.505106611e-17
2.284469498e-19
2.256690279e-18
0
0
0
0
1.267989446e-15
0
0
0
0
2.243631354e-13
0
0
4.653320384e-14
4.610668537e-14
0
1.512661172e-12
0
0
0
0
2.83102128e-12
0
1.136595165e-10
0
0
0
6.107939441e-12
9.227240298e-11
0
1.46740267e-13
3.780816663e-12
2.749825235e-12
4.072832884e-12
0
2.70191288e-13
3.340700674e-12
7.033446338e-13
4.853819848e-14
1.000290386e-13
1.146872025e-12
1.168689918e-11
1.428071132e-12
0
5.029358828e-13
6.54996721e-12
1.815335788e-11
5.818989494e-12
2.507400722e-12
3.879157181e-12
1.045214506e-11
1.372432557e-11
5.778892465e-12
6.378956311e-12
7.550230197e-12
1.07198052e-11
1.104485801e-11
3.142599789e-12
1.023276689e-11
1.125950667e-11
8.693053461e-12
1.139812811e-11
3.310876444e-12
7.403657568e-12
8.422423187e-12
7.230853699e-12
6.821964053e-12
6.843898254e-11
1.912995564e-11
7.404744484e-12
8.000986672e-12
3.741131225e-12
7.375064585e-09
1.338935012e-09
1.782651794e-10
3.0957556e-11
1.514305804e-12
0
0
0
0
6.29571278e-11
0
0
6.502134342e-12
1.003397377e-10
3.224944181e-09
0
0
7.652199969e-12
1.379062533e-10
2.751950933e-09
0
1.332858097e-13
1.170298132e-11
2.205595857e-10
3.691056839e-09
0
2.136003604e-12
3.42075589e-11
5.282630781e-10
7.856063252e-09
0
5.640623287e-12
4.960539496e-11
8.590558497e-10
1.004403008e-08
8.11049901e-13
1.128570551e-11
6.886108586e-11
9.803429476e-10
9.05335939e-09
1.632119734e-12
1.33303938e-11
7.717168205e-11
8.802124723e-10
6.683145766e-09
1.457371164e-12
6.157463784e-12
8.416132809e-11
8.145534831e-10
5.610822258e-09
1.993636885e-12
9.112849498e-12
1.178684915e-10
1.060016067e-09
7.263513993e-09
5.5135375e-12
2.398937425e-11
1.835222963e-10
1.46423564e-09
9.264217379e-09
4.420872327e-12
2.936913875e-11
2.440921065e-10
1.664258413e-09
9.237911564e-09
0
3.923431023e-11
2.79256905e-10
1.629714299e-09
8.007661191e-09
9.0889662e-12
5.519327154e-11
3.432233362e-10
1.864759832e-09
8.903320966e-09
1.96281891e-11
8.142617826e-11
4.38566272e-10
2.183522182e-09
9.779797147e-09
3.243304706e-11
1.094692401e-10
5.14369878e-10
2.330181703e-09
9.674437588e-09
5.489980089e-11
1.586935508e-10
6.373755609e-10
2.631388475e-09
1.014888782e-08
9.665442499e-11
2.439357487e-10
8.60788705e-10
2.964259494e-09
1.04131674e-08
1.122318013e-10
2.728199054e-10
1.119018675e-09
3.950023652e-09
1.579797321e-08
2.217302419e-10
4.860983528e-10
1.534436868e-09
5.028046147e-09
1.654390106e-08
3.08696422e-10
5.514170563e-10
1.362381991e-09
3.59100864e-09
9.36568344e-09
3.567734423e-10
5.034019827e-10
9.157825048e-10
1.823993322e-09
3.686736877e-09
2.601120519e-10
3.105456578e-10
4.584309908e-10
7.049234565e-10
1.132970377e-09
1.226717645e-10
1.367616478e-10
1.681522114e-10
2.147945163e-10
2.85641174e-10
4.198132585e-11
4.390821932e-11
4.869887159e-11
5.528608303e-11
6.347884592e-11
1.203524295e-11
1.22194686e-11
1.273249883e-11
1.322003653e-11
1.360532121e-11
3.577592651e-12
3.590095776e-12
3.582966687e-12
3.508607583e-12
3.403595184e-12
1.071368899e-12
1.062426427e-12
1.03628182e-12
9.920247309e-13
9.329400546e-13
3.184155387e-13
3.146935039e-13
3.053943356e-13
2.891065866e-13
2.66268821e-13
9.50181475e-14
9.41537914e-14
9.209810361e-14
8.71089636e-14
7.991654171e-14
2.365344357e-14
2.371705313e-14
2.40279964e-14
2.496193198e-14
2.364094266e-14
8.619085373e-15
8.551590957e-15
8.398537527e-15
8.187097518e-15
7.81710807e-15
3.191337359e-15
3.156161667e-15
3.064083569e-15
2.971865747e-15
2.870280233e-15
1.495909042e-15
1.491692031e-15
1.481474177e-15
1.469393288e-15
1.459233618e-15
9.826786222e-16
9.836606287e-16
9.865201005e-16
9.940059816e-16
1.007759797e-15
7.824262605e-16
7.919492089e-16
8.137519806e-16
8.490077278e-16
8.993994863e-16
6.973741208e-16
7.072362609e-16
7.291789905e-16
7.598987969e-16
7.995942669e-16
4.586095436e-16
4.661153818e-16
4.824854147e-16
5.076882163e-16
5.391761543e-16
2.361607658e-16
2.390135294e-16
2.448066226e-16
2.52951978e-16
2.640364348e-16
9.544436654e-17
9.732475263e-17
9.832959413e-17
9.686894164e-17
8.751958501e-17
6.676112576e-18
6.501189808e-18
6.016176322e-18
5.137115114e-18
3.18470196e-18
0
0
0
0
0
0
0
2.735350732e-18
3.241141241e-18
2.901360651e-18
5.84605791e-19
7.030474084e-19
7.200792036e-19
6.333333298e-19
2.109825506e-19
0
0
0
0
0
0
0
0
0
0
0
0
0
0
0
3.643845371e-18
2.861194377e-18
4.154495851e-19
0
0
0
0
0
0
0
0
0
0
0
0
0
0
0
0
0
0
0
0
0
0
0
0
0
0
0
0
0
0
0
0
0
0
0
0
0
0
0
0
0
0
0
0
0
0
0
0
0
0
0
0
0
0
0
0
0
0
0
0
0
0
1.587016786e-21
1.431498075e-21
1.173229136e-21
8.600541167e-22
5.617822263e-22
5.16956356e-21
5.055884504e-21
4.834381974e-21
4.571747723e-21
4.357051659e-21
9.7949328e-22
9.547516017e-22
9.076098393e-22
9.978306087e-22
1.650521563e-21
2.370888485e-19
2.382451659e-19
2.391612687e-19
2.388821427e-19
2.313014721e-19
2.52448519e-19
2.539026917e-19
2.551368374e-19
2.549164944e-19
2.46646189e-19
2.294850972e-19
2.293027926e-19
2.268236218e-19
2.20743736e-19
2.045163944e-19
8.607818779e-21
8.881424038e-21
9.095319695e-21
9.028623086e-21
8.312771416e-21
1.187494196e-20
1.210043712e-20
1.277498114e-20
1.433393995e-20
1.715183326e-20
3.732347292e-20
3.576168663e-20
3.237471008e-20
2.748258799e-20
2.163239267e-20
1.246969088e-20
1.228157325e-20
1.173953011e-20
1.013825418e-20
5.484597344e-21
5.215993932e-10
3.69663782e-08
1.983164604e-08
2.606221207e-08
5.326422703e-08
5.655750088e-08
4.26132672e-08
2.747408014e-08
2.241683727e-08
2.96126072e-08
3.561843018e-08
3.196230593e-08
2.537080767e-08
2.828156597e-08
2.979328688e-08
2.759540269e-08
2.621200823e-08
3.241095657e-08
4.459299504e-08
4.045464577e-08
1.886632267e-08
6.133428341e-09
1.603187139e-09
3.54554117e-10
7.120011369e-11
1.404879351e-11
3.346532394e-12
8.942704242e-13
2.460615134e-13
7.442746685e-14
2.258034343e-14
7.535354098e-15
2.823069849e-15
1.460978541e-15
1.023697156e-15
9.41409698e-16
8.31752375e-16
5.651157821e-16
2.724890189e-16
7.715051437e-17
0
0
1.791535393e-18
0
0
0
0
2.489074403e-19
0
0
0
0
0
0
0
0
0
0
0
0
3.957260787e-22
4.329372389e-21
3.374565997e-21
2.152679774e-19
2.294109298e-19
1.809727219e-19
7.834448351e-21
1.935942719e-20
1.799794579e-20
0
1.960536345e-09
8.976432054e-09
1.089401683e-09
6.423250118e-10
2.369163863e-11
2.085589285e-07
3.489323092e-06
2.003284885e-07
8.930649662e-09
6.571864008e-10
7.989189948e-08
6.417612699e-07
1.313880393e-07
1.04307196e-08
1.583148064e-09
1.186445698e-07
1.449718966e-06
1.597055498e-05
1.202015312e-06
6.001423272e-08
2.403891423e-07
2.892419072e-06
2.944765676e-05
2.932483383e-06
2.179913494e-07
2.242511097e-07
2.16720429e-06
1.711665205e-05
2.304623249e-06
2.18115906e-07
1.498765147e-07
1.189130769e-06
7.62358351e-06
1.310065703e-06
1.62542624e-07
8.931015933e-08
6.312703994e-07
3.733807895e-06
7.898406467e-06
9.958037847e-07
7.44432069e-08
6.136976663e-07
4.451684254e-06
2.355069013e-05
3.336105819e-06
9.713724509e-08
7.161347769e-07
4.596871679e-06
2.501636991e-05
4.184696561e-06
1.131903751e-07
7.151365675e-07
4.420628833e-06
2.335949265e-05
4.327636505e-06
9.448650662e-08
5.944056147e-07
3.376527213e-06
1.615027077e-05
4.984565943e-06
7.088550142e-08
5.130253071e-07
2.696703488e-06
1.271679038e-05
1.394644611e-05
7.989612117e-08
4.925846958e-07
2.367292879e-06
1.102768131e-05
2.315057392e-05
7.718016844e-08
4.348583566e-07
2.123406621e-06
9.583025641e-06
2.380871832e-05
7.224830337e-08
3.825061724e-07
1.956744815e-06
8.399451874e-06
2.274153924e-05
6.53659661e-08
3.290742475e-07
1.747148037e-06
7.307047049e-06
1.96481664e-05
8.168734086e-08
4.088582921e-07
1.877706414e-06
7.648850618e-06
2.027365748e-05
1.117299823e-07
5.490901274e-07
2.476961191e-06
1.007854102e-05
2.393392707e-05
9.751052654e-08
4.40716048e-07
1.822835753e-06
6.786680846e-06
1.75375337e-05
3.963191223e-08
1.339577678e-07
4.082238708e-07
1.08274409e-06
1.908483583e-06
1.103621564e-08
2.74298125e-08
6.135042293e-08
1.197885632e-07
1.638746858e-07
2.501566706e-09
4.734113284e-09
8.029011332e-09
1.194255071e-08
1.33151343e-08
4.866585254e-10
7.310154687e-10
9.874964556e-10
1.180874323e-09
1.12109296e-09
8.972594763e-11
1.089128207e-10
1.223292373e-10
1.229272131e-10
1.028250224e-10
1.538749947e-11
1.607774528e-11
1.523867765e-11
1.29751692e-11
9.643957977e-12
3.394245653e-12
3.179814475e-12
2.705333969e-12
2.107268856e-12
1.480987771e-12
8.698200912e-13
7.691471454e-13
6.422787077e-13
4.676855591e-13
3.275132281e-13
2.137297536e-13
2.089175137e-13
1.727726224e-13
1.242620072e-13
6.957422027e-14
6.796167398e-14
5.439909267e-14
4.618070529e-14
3.784607918e-14
2.632898037e-14
2.146529891e-14
1.815586778e-14
1.379860843e-14
1.209213251e-14
9.379181716e-15
7.269872921e-15
6.432624969e-15
5.106655031e-15
4.290093228e-15
3.526216779e-15
2.786471055e-15
2.571531694e-15
2.359358111e-15
2.07469594e-15
1.826573583e-15
1.480970974e-15
1.417567995e-15
1.333105169e-15
1.303880385e-15
1.340452605e-15
1.052038349e-15
1.107788345e-15
1.181618072e-15
1.263716113e-15
1.372546865e-15
9.998998505e-16
1.115033262e-15
1.195651707e-15
1.320415025e-15
1.550209887e-15
8.835698419e-16
9.780353823e-16
1.067953726e-15
1.165668355e-15
1.214105197e-15
6.081094416e-16
6.539217864e-16
6.583029419e-16
6.598744383e-16
7.023701941e-16
2.860316321e-16
2.787505861e-16
2.454359649e-16
2.231733063e-16
2.580352533e-16
6.023295903e-17
2.992774508e-17
0
0
3.164366011e-17
0
0
0
0
2.27419501e-18
0
0
1.686396983e-18
0
0
5.292238148e-19
6.034425059e-19
0
0
0
0
0
0
0
0
0
0
0
0
0
0
0
0
0
9.737796325e-19
0
1.212828287e-17
5.893317698e-18
6.358669865e-18
2.234458178e-18
5.238823013e-19
1.248546195e-18
1.545148746e-18
2.450682497e-19
0
0
0
0
0
0
0
0
0
0
0
0
0
0
0
0
0
0
0
0
0
0
0
0
0
0
0
0
0
0
0
0
0
0
0
0
0
0
0
0
0
0
0
0
0
0
0
0
0
0
0
0
0
0
0
0
0
0
0
0
1.342479868e-21
1.585813173e-22
2.32223478e-22
1.897961996e-21
3.929888183e-21
6.102548129e-21
4.501433628e-21
6.128682892e-21
9.734062343e-21
1.461812662e-20
2.912722353e-20
6.905762336e-21
2.276424089e-20
1.863869843e-19
2.166614114e-19
2.348680358e-19
2.481404285e-19
2.556619509e-19
2.603900863e-19
2.624083597e-19
2.603982598e-19
2.60717952e-19
2.613949398e-19
2.538787562e-19
2.409904983e-19
2.228228019e-19
2.02912194e-19
1.908325754e-19
1.697768919e-19
2.07380458e-20
9.244159906e-21
9.483100739e-21
8.6317517e-21
8.36317581e-21
5.677854384e-21
5.429676236e-21
2.194973132e-20
2.133374623e-20
2.108076875e-20
1.621522389e-20
1.169902676e-20
1.461085585e-20
1.161133045e-20
8.112288125e-21
0
0
0
0
0
0
0
6.148463028e-14
0
0
0
0
0
0
0
0
0
0
0
0
0
0
0
0
0
0
0
0
0
0
0
0
0
0
0
0
0
0
0
0
0
0
0
0
0
0
0
0
0
0
0
0
0
0
0
0
0
0
0
0
0
0
0
0
0
0
0
2.825353788e-12
1.028789368e-13
0
0
0
0
0
0
0
0
0
0
0
0
0
0
0
0
0
0
0
0
0
0
0
0
0
0
0
0
0
0
0
0
0
0
0
0
0
0
0
0
0
0
0
0
0
0
0
0
0
0
0
0
0
0
0
0
0
0
1.123692956e-11
0
0
0
0
0
0
0
0
0
0
0
0
0
0
0
0
0
0
0
0
0
0
0
0
0
0
0
0
0
0
0
0
0
0
0
0
0
0
0
0
0
0
0
0
0
0
0
0
0
0
0
0
0
0
0
0
0
0
0
9.659236209e-10
3.724561982e-12
3.121933956e-13
0
0
0
0
0
0
0
0
0
0
0
0
0
0
0
0
0
0
0
0
0
0
0
0
0
0
0
0
0
0
0
0
0
0
0
0
0
0
0
0
0
0
0
0
0
0
0
0
0
0
0
0
0
0
0
0
0
7.716047569e-09
6.914739445e-11
6.520197986e-13
1.601036696e-13
0
0
0
0
0
0
0
0
0
0
0
0
0
0
0
0
0
0
0
0
0
0
0
0
0
0
0
0
0
0
0
0
0
0
0
0
0
0
0
0
0
0
0
0
0
0
0
0
0
0
0
0
0
0
0
0
1.61346874e-08
3.848118273e-10
3.282583706e-12
7.663105057e-13
4.434655156e-14
0
0
0
0
0
0
0
0
0
0
0
0
0
0
0
0
0
0
0
0
0
0
0
0
0
0
0
0
0
0
0
0
0
0
0
0
0
0
0
0
0
0
0
0
0
0
0
0
0
0
0
0
0
0
0
1.530451097e-08
8.476546613e-10
1.993562196e-11
2.703683504e-13
8.53540485e-14
0
0
0
0
0
0
0
0
0
0
0
0
0
0
0
0
0
0
0
0
0
0
0
0
0
0
0
0
0
0
0
0
0
0
0
0
0
0
0
0
0
0
0
0
0
0
0
0
0
0
0
0
0
0
0
7.778561829e-08
4.968169117e-09
1.683293899e-10
3.39115022e-12
0
3.267157525e-15
0
0
0
0
0
0
0
0
0
0
0
0
0
0
0
0
0
0
0
0
0
0
0
0
0
0
0
0
0
0
0
0
0
0
0
0
0
0
0
0
0
0
0
0
0
0
0
0
0
0
0
0
0
0
2.878342946e-07
2.056556136e-08
1.024650892e-09
3.481922981e-11
7.864676096e-13
3.094117685e-13
1.224472872e-14
0
0
0
0
0
0
0
0
0
0
0
0
0
0
0
0
0
0
0
0
0
0
0
0
0
0
0
0
0
0
0
0
0
0
0
0
0
0
0
0
0
0
0
0
0
0
0
0
0
0
0
0
0
4.585911281e-07
3.444925971e-08
2.788913619e-09
1.436520488e-10
5.861746342e-12
1.443489795e-13
7.305490133e-14
0
0
0
0
0
0
0
0
0
0
0
0
0
0
0
0
0
0
0
0
0
0
0
0
0
0
0
0
0
0
0
0
0
0
0
0
0
0
0
0
0
0
0
0
0
0
0
0
0
0
0
0
0
6.15859047e-07
5.811177708e-08
6.225589121e-09
4.479922835e-10
2.609674959e-11
9.986451514e-13
3.001097751e-13
1.443002975e-14
0
0
0
0
0
0
0
0
0
0
0
0
0
0
0
0
0
0
0
0
0
0
0
0
0
0
0
0
0
0
0
0
0
0
0
0
0
0
0
0
0
0
0
0
0
0
0
0
0
0
0
0
6.836921375e-07
7.164293407e-08
8.362026638e-09
1.105461944e-09
8.6549527e-11
4.543185006e-12
1.076390652e-13
5.144154799e-14
0
0
0
0
0
0
0
0
0
0
0
0
0
0
0
0
0
0
0
0
0
0
0
0
0
0
0
0
0
0
0
0
0
0
0
0
0
0
0
0
0
0
0
0
0
0
0
0
0
0
0
0
2.002157241e-06
2.25828781e-07
2.084630339e-08
3.63038158e-09
3.037262525e-10
1.800558598e-11
5.657335018e-13
1.531832929e-13
4.699295853e-15
0
0
0
0
0
0
0
0
0
0
0
0
0
0
0
0
0
0
0
0
0
0
0
0
0
0
0
0
0
0
0
0
0
0
0
0
0
0
0
0
0
0
0
0
0
0
0
0
0
0
0
3.674574224e-06
4.831857949e-07
4.945527043e-08
8.186856242e-09
8.232667383e-10
5.751405933e-11
2.359177918e-12
4.858952869e-13
2.908208719e-14
0
0
0
0
0
0
0
0
0
0
0
0
0
0
0
0
0
0
0
0
0
0
0
0
0
0
0
0
0
0
0
0
0
0
0
0
0
0
0
0
0
0
0
0
0
0
0
0
0
0
0
4.233616505e-06
6.899869288e-07
8.396418753e-08
1.352792926e-08
1.745955889e-09
1.353294142e-10
6.690273071e-12
2.318459936e-13
7.31735433e-14
4.426441929e-16
0
0
0
0
0
0
0
0
0
0
0
0
0
0
0
0
0
0
0
0
0
0
0
0
0
0
0
0
0
0
0
0
0
0
0
0
0
0
0
0
0
0
0
0
0
0
0
0
0
0
4.444755337e-06
7.358103848e-07
1.017792316e-07
1.635671839e-08
2.575842532e-09
2.168399243e-10
1.234035244e-11
4.219212335e-13
8.873931829e-14
1.707270056e-15
0
0
0
0
0
0
0
0
0
0
0
0
0
0
0
0
0
0
0
0
0
0
0
0
0
0
0
0
0
0
0
0
0
0
0
0
0
0
0
0
0
0
0
0
0
0
0
0
0
0
4.61829442e-06
8.177086011e-07
1.22464412e-07
2.188247617e-08
2.815265258e-09
2.396415443e-10
1.437933318e-11
8.107291677e-13
1.182017365e-13
2.751932656e-15
0
0
0
0
0
0
0
0
0
0
0
0
0
0
0
0
0
0
0
0
0
0
0
0
0
0
0
0
0
0
0
0
0
0
0
0
0
0
0
0
0
0
0
0
0
0
0
0
0
0
4.465261358e-06
8.138617795e-07
1.255031765e-07
4.609083076e-08
3.558036904e-09
2.173182523e-10
1.150274498e-11
5.326538803e-13
5.718406581e-14
4.190416519e-16
0
0
0
0
0
0
0
0
0
0
0
0
0
0
0
0
0
0
0
0
0
0
0
0
0
0
0
0
0
0
0
0
0
0
0
0
0
0
0
0
0
0
0
0
0
0
0
0
0
0
4.81668679e-06
8.600441082e-07
1.278472341e-07
1.355910118e-08
1.101967824e-09
7.508010097e-11
4.433988542e-12
5.747242996e-13
5.331146258e-14
1.344724154e-14
0
0
0
0
0
0
0
0
0
0
0
0
0
0
0
0
0
0
0
0
0
0
0
0
0
0
0
0
0
0
0
0
0
0
0
0
0
0
0
0
0
0
0
0
0
0
0
0
0
0
3.930246533e-06
7.685694726e-07
1.094612121e-07
9.450630305e-09
6.411102224e-10
3.859956718e-11
2.199828276e-12
2.438707689e-13
4.882603817e-14
1.536401784e-14
1.074605599e-15
0
0
0
0
0
0
0
0
0
0
0
0
0
0
0
0
0
0
0
0
0
0
0
0
0
0
0
0
0
0
0
0
0
0
0
0
0
0
0
0
0
0
0
0
0
0
0
0
0
6.110350789e-07
1.317649548e-07
1.85545411e-08
1.90241552e-09
1.606070362e-10
1.207355204e-11
1.040943294e-12
6.207814493e-14
2.423237379e-14
1.082312798e-14
1.146518857e-14
0
0
0
0
0
0
0
0
0
0
0
0
0
0
0
0
0
0
0
0
0
0
0
0
0
0
0
0
0
0
0
0
0
0
0
0
0
0
0
0
0
0
0
0
0
0
0
0
0
6.312571283e-08
1.483733889e-08
2.441571898e-09
3.113388484e-10
3.308563086e-11
3.065507141e-12
6.776273014e-14
1.580701552e-14
1.095339604e-15
8.037023579e-16
9.870772489e-16
7.528407919e-15
0
0
0
0
0
0
0
0
0
0
0
0
0
0
0
0
0
0
0
0
0
0
0
0
0
0
0
0
0
0
0
0
0
0
0
0
0
0
0
0
0
0
0
0
0
0
0
0
5.889260327e-09
1.583983408e-09
3.102524348e-10
4.796528106e-11
6.227143878e-12
7.580421014e-13
1.306139241e-13
1.301867908e-14
1.437639752e-15
1.056823772e-16
0
8.096497588e-16
5.822144518e-15
0
0
0
0
0
0
0
0
0
0
0
0
0
0
0
0
0
0
0
0
0
0
0
0
0
0
0
0
0
0
0
0
0
0
0
0
0
0
0
0
0
0
0
0
0
0
0
5.553978914e-10
1.713343828e-10
3.925311448e-11
7.224269856e-12
1.14263659e-12
1.477480399e-13
1.42142628e-15
3.801067877e-15
3.234303048e-15
1.955676163e-15
1.239324752e-15
1.268139651e-15
6.852223326e-16
5.656278933e-15
0
0
0
0
0
0
0
0
0
0
0
0
0
0
0
0
0
0
0
0
0
0
0
0
0
0
0
0
0
0
0
0
0
0
0
0
0
0
0
0
0
0
0
0
0
0
5.485424111e-11
1.907099459e-11
4.605357991e-12
1.046517939e-12
2.18066324e-13
5.049996648e-14
1.451859429e-14
4.265208312e-15
1.489524302e-15
3.257426466e-16
1.737760366e-15
4.144821956e-16
2.186277796e-15
7.990189918e-16
6.768952933e-15
0
0
0
0
0
0
0
0
0
0
0
0
0
0
0
0
0
0
0
0
0
0
0
0
0
0
0
0
0
0
0
0
0
0
0
0
0
0
0
0
0
0
0
0
0
5.439720564e-12
2.206297225e-12
7.398367018e-13
2.634335565e-13
6.843360268e-14
1.782494341e-14
6.138751441e-15
9.642137302e-16
1.746294794e-16
9.277805957e-16
7.383193664e-18
4.165572389e-16
8.757965825e-16
3.585543694e-15
6.724143943e-15
8.040564975e-15
0
0
0
0
0
0
0
0
0
0
0
0
0
0
0
0
0
0
0
0
0
0
0
0
0
0
0
0
0
0
0
0
0
0
0
0
0
0
0
0
0
0
0
0
8.598146108e-13
3.99013732e-13
1.585981385e-13
1.581175966e-14
1.553908181e-14
0
1.911885097e-15
0
2.265110257e-16
9.361746125e-16
1.04485568e-15
3.281026532e-17
2.346670717e-16
0
0
6.2768687e-15
1.020652814e-14
0
0
0
0
0
0
0
0
0
0
0
0
0
0
0
0
0
0
0
0
0
0
0
0
0
0
0
0
0
0
0
0
0
0
0
0
0
0
0
0
0
0
0
2.165209955e-13
1.134505391e-13
4.862084005e-14
1.939649188e-14
9.179040774e-15
3.760119156e-15
2.134360846e-15
8.369614919e-16
0
1.000756161e-15
7.77138021e-16
1.378463648e-16
3.234024296e-16
3.490705193e-16
4.065021145e-16
0
6.456383529e-15
1.024793765e-14
0
0
0
0
0
0
0
0
0
0
0
0
0
0
0
0
0
0
0
0
0
0
0
0
0
0
0
0
0
0
0
0
0
0
0
0
0
0
0
0
0
0
5.170329035e-14
2.267341258e-14
1.550913863e-14
7.76928839e-15
3.738336341e-15
2.259742941e-15
1.629340277e-15
9.980335046e-16
0
0
8.13511603e-17
3.563497233e-16
3.90927099e-17
4.67760116e-16
3.576432285e-16
1.658831119e-15
2.956503352e-15
8.828411552e-15
0
0
0
0
0
0
0
0
0
0
0
0
0
0
0
0
0
0
0
0
0
0
0
0
0
0
0
0
0
0
0
0
0
0
0
0
0
0
0
0
0
0
1.543317586e-14
1.059705277e-14
6.258104432e-15
2.567123557e-15
2.065686633e-15
1.523536589e-15
1.191541251e-15
1.002894272e-15
0
0
0
8.336470225e-16
1.395891034e-15
1.674502858e-16
1.697892167e-16
0
0
5.248707746e-15
9.169091949e-15
0
0
0
0
0
0
0
0
0
0
0
0
0
0
0
0
0
0
0
0
0
0
0
0
0
0
0
0
0
0
0
0
0
0
0
0
0
0
0
0
0
6.701989991e-15
4.417804944e-15
2.488410209e-15
9.944820067e-16
1.403983845e-15
1.069578734e-15
1.019307688e-15
9.872225786e-16
1.134384184e-15
1.211064668e-15
1.09330267e-15
1.43308918e-15
7.573173837e-16
8.619309614e-17
3.138521471e-16
3.459218411e-16
6.884602074e-16
0
5.878608054e-15
1.002535196e-14
0
0
0
0
0
0
0
0
0
0
0
0
0
0
0
0
0
0
0
0
0
0
0
0
0
0
0
0
0
0
0
0
0
0
0
0
0
0
0
0
2.630341045e-15
2.118498177e-15
1.492040887e-15
1.498246881e-15
1.354339529e-15
1.342801957e-15
1.808693927e-15
1.256079831e-15
1.171053798e-15
1.37982197e-15
1.057000956e-15
1.051973501e-15
7.688731065e-16
8.603644434e-17
0
0
0
1.755306096e-15
7.775259467e-15
1.008775991e-14
0
0
0
0
0
0
0
0
0
0
0
0
0
0
0
0
0
0
0
0
0
0
0
0
0
0
0
0
0
0
0
0
0
0
0
0
0
0
0
0
1.65871642e-15
1.466794128e-15
1.284769633e-15
1.223274493e-15
1.37810791e-15
1.427334496e-15
2.024657888e-15
1.754876086e-15
1.272262859e-15
1.097154241e-15
7.457865142e-16
4.689920066e-16
1.886617093e-16
9.77764966e-17
0
3.025531564e-16
3.495636415e-16
8.638412206e-16
0
5.617040349e-15
9.595533733e-15
0
0
0
0
0
0
0
0
0
0
0
0
0
0
0
0
0
0
0
0
0
0
0
0
0
0
0
0
0
0
0
0
0
0
0
0
0
0
0
1.377687671e-15
1.439427957e-15
1.513905679e-15
1.541166616e-15
1.826137224e-15
1.948733976e-15
2.014013571e-15
2.104370199e-15
1.158863638e-15
7.10442507e-16
4.39316597e-16
3.303106438e-16
3.923160065e-16
4.493384714e-16
2.336072845e-16
0
7.448067282e-16
4.585334446e-15
6.319108993e-15
1.30108096e-14
1.495705194e-14
1.231201185e-14
0
0
0
0
0
0
0
0
0
0
0
0
0
0
0
0
0
0
0
0
0
0
0
0
0
0
0
0
0
0
0
0
0
0
0
0
0
0
1.557408625e-15
1.823673331e-15
1.768720155e-15
1.65464515e-15
1.833793384e-15
1.887986777e-15
1.817561213e-15
2.009461e-15
1.100428313e-15
6.366350271e-16
4.697690091e-16
3.493375166e-16
4.337869191e-16
2.860984606e-16
4.068113938e-16
0
1.209411513e-16
3.876159662e-16
1.148465632e-15
0
8.163984045e-15
1.103253915e-14
0
0
0
0
0
0
0
0
0
0
0
0
0
0
0
0
0
0
0
0
0
0
0
0
0
0
0
0
0
0
0
0
0
0
0
0
0
0
1.953307404e-15
2.012245495e-15
1.824372513e-15
1.419580455e-15
1.255236967e-15
1.179030088e-15
1.219266043e-15
1.621986249e-15
8.879134127e-16
5.068232165e-16
4.15665305e-16
2.979323214e-16
4.732943711e-16
2.79398852e-16
5.211793771e-16
5.473412243e-16
0
7.323950228e-16
3.916484816e-15
4.055250675e-15
8.360941013e-15
1.200546341e-14
1.118257118e-14
0
0
0
0
0
0
0
0
0
0
0
0
0
0
0
0
0
0
0
0
0
0
0
0
0
0
0
0
0
0
0
0
0
0
0
0
0
1.374176961e-15
1.493993487e-15
1.080870121e-15
7.495799213e-16
6.266973601e-16
5.336140986e-16
6.272184031e-16
1.127096083e-15
4.952030334e-16
2.343274879e-16
2.144705907e-16
1.377627927e-16
2.322994975e-16
1.676925074e-16
2.88947776e-16
0
0
0
1.852779157e-15
1.951185657e-15
0
8.973114369e-15
1.091583749e-14
0
0
0
0
0
0
0
0
0
0
0
0
0
0
0
0
0
0
0
0
0
0
0
0
0
0
0
0
0
0
0
0
0
0
0
0
0
8.311343832e-16
9.315619333e-16
5.163089703e-16
2.35306346e-16
1.674756e-16
1.163158609e-16
2.563527576e-16
8.093384857e-16
2.535347721e-16
5.38665038e-17
4.983993415e-17
3.833432639e-18
3.652468492e-17
2.865366014e-17
7.509125024e-17
5.156837233e-16
1.576729557e-15
3.455068712e-16
1.706357778e-15
1.84651541e-15
1.909907457e-15
0
9.575960443e-15
1.03526592e-14
0
0
0
0
0
0
0
0
0
0
0
0
0
0
0
0
0
0
0
0
0
0
0
0
0
0
0
0
0
0
0
0
0
0
0
0
4.131288209e-16
2.681556403e-16
9.014139322e-17
0
2.427723807e-17
0
0
1.316609086e-17
0
0
7.740081885e-18
0
0
1.148666835e-16
3.100155111e-17
3.122829762e-16
4.629501996e-16
0
0
1.726723296e-15
1.838885836e-15
0
9.963123523e-15
1.438047686e-14
1.076690267e-14
0
0
0
0
0
0
0
0
0
0
0
0
0
0
0
0
0
0
0
0
0
0
0
0
0
0
0
0
0
0
0
0
0
0
0
5.553711582e-17
1.235482595e-17
0
0
0
0
0
4.131825612e-18
0
0
5.356284119e-19
0
0
1.144266871e-16
2.850054374e-17
3.188141117e-17
0
0
0
1.921803217e-15
3.358374827e-15
2.265793881e-15
0
1.231478263e-14
1.267048642e-14
0
0
0
0
0
0
0
0
0
0
0
0
0
0
0
0
0
0
0
0
0
0
0
0
0
0
0
0
0
0
0
0
0
0
0
0
0
0
5.960182994e-18
2.035805377e-19
0
0
2.705100878e-18
0
0
6.333317611e-19
0
0
1.051343825e-16
2.946623229e-19
0
4.470711403e-16
1.626619013e-15
8.390760283e-16
1.458497603e-15
2.148787794e-15
2.140671136e-15
0
1.235673456e-14
1.580160408e-14
1.270424387e-14
0
0
0
0
0
0
0
0
0
0
0
0
0
0
0
0
0
0
0
0
0
0
0
0
0
0
0
0
0
0
0
0
0
0
0
0
0
0
0
0
0
3.738509514e-18
0
0
6.728541428e-19
0
0
1.032335643e-16
0
0
4.174548085e-16
1.929646321e-15
4.912814896e-16
1.382593723e-15
2.69042561e-15
3.947120166e-15
2.120878655e-15
0
1.066225567e-14
1.17960509e-14
0
0
0
0
0
0
0
0
0
0
0
0
0
0
0
0
0
0
0
0
0
0
0
0
0
0
0
0
0
0
0
0
0
0
0
0
9.445158399e-19
0
0
0
4.273891095e-17
3.956805954e-18
0
0
0
0
0
1.032884679e-16
0
0
1.965460938e-17
0
0
0
1.277221255e-15
2.122745905e-15
1.944735175e-15
0
1.014488491e-14
1.453681342e-14
1.224981878e-14
0
0
0
0
0
0
0
0
0
0
0
0
0
0
0
0
0
0
0
0
0
0
0
0
0
0
0
0
0
0
0
0
0
0
8.669677084e-19
0
0
0
0
2.923436193e-18
0
0
0
0
0
0
6.697074752e-18
0
0
0
4.071749349e-16
1.550266723e-15
6.129636169e-16
9.999193527e-16
1.414226651e-15
1.457424568e-15
0
7.59240427e-15
1.255009082e-14
1.218153733e-14
0
0
0
0
0
0
0
0
0
0
0
0
0
0
0
0
0
0
0
0
0
0
0
0
0
0
0
0
0
0
0
0
0
9.84507516e-19
5.153174347e-19
0
0
0
0
2.3105747e-18
0
0
0
0
0
0
1.384695767e-17
0
0
0
4.698323264e-16
2.117301267e-15
6.501423155e-16
8.992593008e-16
1.270266059e-15
2.581839161e-15
1.992662984e-15
0
1.047055115e-14
1.473837174e-14
1.233222187e-14
0
0
0
0
0
0
0
0
0
0
0
0
0
0
0
0
0
0
0
0
0
0
0
0
0
0
0
0
0
0
0
0
1.473595569e-19
0
0
0
0
0
0
0
0
2.207594704e-18
0
0
0
2.153364564e-17
1.122306518e-16
0
0
1.295365371e-16
1.09172906e-15
8.710408424e-17
0
8.018295529e-16
1.454459595e-15
1.558096501e-15
0
9.330289605e-15
1.40921055e-14
1.284610129e-14
0
0
0
0
0
0
0
0
0
0
0
0
0
0
0
0
0
0
0
0
0
0
0
0
0
0
0
0
0
0
0
0
0
0
0
0
0
2.117753808e-18
0
0
0
2.305229235e-18
0
0
0
3.157247566e-17
1.28309113e-16
1.483398312e-18
0
0
0
0
5.8661893e-18
9.440812948e-16
1.956544954e-15
2.839207661e-15
0
0
1.058531992e-14
1.366876794e-14
7.444317878e-15
0
0
0
0
0
0
0
0
0
0
0
0
0
0
0
0
0
0
0
0
0
0
0
0
0
0
0
0
0
0
0
0
0
0
0
0
0
0
0
0
2.319595959e-18
0
0
2.146454183e-18
3.640615673e-17
1.348586503e-16
1.162932242e-17
0
0
1.694649237e-17
8.698878214e-16
1.014780335e-16
7.448877909e-16
1.122568198e-15
1.731789171e-15
2.08363108e-15
0
9.808099128e-15
1.450037341e-14
1.261186881e-14
0
0
0
0
0
0
0
0
0
0
0
0
0
0
0
0
0
0
0
0
0
0
0
0
0
0
0
0
0
0
0
0
0
0
0
1.992421714e-18
0
0
0
2.195215101e-18
2.054088276e-19
0
0
3.808553718e-18
4.19900305e-17
1.409556198e-16
2.00611513e-17
5.383917711e-18
0
2.292828541e-16
1.694176653e-15
3.179565911e-16
2.042626278e-16
1.288647934e-15
2.46653339e-15
3.343769717e-15
0
0
9.696099717e-15
1.113234266e-14
0
0
0
0
0
0
0
0
0
0
0
0
0
0
0
0
0
0
0
0
0
0
0
0
0
0
0
0
0
0
0
0
0
0
0
0
0
0
0
2.290183322e-18
3.245261851e-19
0
0
4.352886195e-18
3.870148512e-17
1.354893387e-16
1.585176391e-17
2.608791542e-18
0
9.654475772e-17
7.730824103e-16
1.005457251e-16
5.955689029e-18
8.653357931e-16
1.571762143e-15
1.192618762e-15
0
0
9.78138732e-15
1.409007488e-14
1.184990982e-14
0
0
0
0
0
0
0
0
0
0
0
0
0
0
0
0
0
0
0
0
0
0
0
0
0
0
0
0
0
0
0
0
0
0
0
0
0
0
0
1.522485141e-19
0
0
4.515959303e-18
3.482087817e-17
1.301559524e-16
1.444890631e-17
0
0
0
0
0
0
6.98270888e-16
9.999830016e-16
1.542571347e-15
2.022884863e-15
0
8.332319272e-15
1.32268951e-14
1.23718823e-14
0
0
0
0
0
0
0
0
0
0
0
0
0
0
0
0
0
0
0
0
0
0
0
0
0
0
0
0
0
0
0
0
0
0
0
0
0
0
0
1.813799584e-19
1.203467785e-19
0
1.982165596e-19
1.896043776e-17
1.291412629e-16
5.994867551e-18
0
0
0
0
0
0
2.405273553e-17
1.124329281e-15
2.280366463e-15
3.205733882e-15
0
0
1.26822787e-14
1.578179522e-14
1.243275522e-14
0
0
0
0
0
0
0
0
0
0
0
0
0
0
0
0
0
0
0
0
0
0
0
0
0
0
0
0
0
0
0
0
0
0
0
0
0
1.847790197e-19
1.858062425e-19
1.226119088e-19
0
0
8.31659794e-18
1.139822384e-16
3.851300436e-18
0
0
0
0
1.359143665e-16
0
0
8.354759731e-16
1.522015384e-15
2.479885994e-15
0
0
1.210312716e-14
1.584645841e-14
1.340188833e-14
0
0
0
0
0
0
0
0
0
0
0
0
0
0
0
0
0
0
0
0
0
0
0
0
0
0
0
0
0
0
0
0
0
0
0
0
1.060881588e-20
1.797140981e-19
1.864395545e-19
1.239599028e-19
0
0
1.517516941e-18
3.490496994e-17
0
0
0
0
0
1.185063281e-16
0
0
8.083255955e-16
1.434661079e-15
2.309234847e-15
2.887772531e-15
0
0
1.144520771e-14
1.437396017e-14
8.96478259e-15
0
0
0
0
0
0
0
0
0
0
0
0
0
0
0
0
0
0
0
0
0
0
0
0
0
0
0
0
0
0
0
0
0
0
0
1.782287464e-19
1.886640181e-19
1.820090455e-19
0
0
0
1.202644481e-18
3.311041167e-17
0
0
0
0
0
0
0
0
2.52344701e-16
1.29645265e-15
2.547148746e-15
3.529969915e-15
5.976797136e-17
0
1.041789173e-14
1.509945623e-14
1.299079163e-14
0
0
0
0
0
0
0
0
0
0
0
0
0
0
0
0
0
0
0
0
0
0
0
0
0
0
0
0
0
0
0
0
0
0
1.3772742e-20
1.817619343e-19
1.889896014e-19
1.813612993e-19
0
0
0
0
0
0
0
0
0
0
0
0
0
0
8.178617465e-16
1.367439218e-15
2.31717258e-15
0
0
9.112761832e-15
1.381669609e-14
1.25476315e-14
0
0
0
0
0
0
0
0
0
0
0
0
0
0
0
0
0
0
0
0
0
0
0
0
0
0
0
0
0
0
0
0
4.379084105e-21
1.803635605e-20
1.825440339e-19
1.900815309e-19
1.789963358e-19
0
0
0
0
0
0
0
0
0
0
0
0
0
0
0
7.586375749e-16
1.074611176e-15
1.48451923e-15
1.935714492e-15
0
0
1.064448399e-14
1.468150776e-14
1.202715577e-14
0
0
0
0
0
0
0
0
0
0
0
0
0
0
0
0
0
0
0
0
0
0
0
0
0
0
0
0
0
0
1.098221892e-20
2.573855733e-20
1.915334995e-19
2.031539431e-19
1.920824607e-19
1.79186798e-19
0
0
0
0
0
0
0
0
0
0
0
0
0
0
0
7.389040196e-16
1.233269765e-15
2.305680853e-15
3.827772361e-15
0
0
1.003609811e-14
1.477029657e-14
1.303815532e-14
0
0
0
0
0
0
0
0
0
0
0
0
0
0
0
0
0
0
0
0
0
0
0
0
0
0
0
0
0
6.500394335e-22
2.26726102e-21
1.355900872e-20
1.831045535e-19
1.947546152e-19
1.816261367e-19
1.302721347e-20
0
0
0
0
0
0
0
0
0
0
0
0
0
0
0
3.604892112e-18
8.328981979e-16
1.482122175e-15
2.450379824e-15
0
0
8.238237295e-15
1.385364678e-14
1.47546339e-14
7.722928677e-15
0
0
0
0
0
0
0
0
0
0
0
0
0
0
0
0
0
0
0
0
0
0
0
0
0
0
9.137398565e-21
1.838640339e-20
3.401810143e-20
1.981583388e-19
2.136247053e-19
2.129074762e-19
1.884371146e-19
1.208995649e-20
0
0
0
0
0
0
0
0
0
0
0
0
0
0
0
0
1.426653908e-18
7.1668951e-16
7.795090063e-16
7.599527704e-16
0
0
0
1.085477448e-14
1.538488941e-14
1.300608124e-14
0
0
0
0
0
0
0
0
0
0
0
0
0
0
0
0
0
0
0
0
0
0
0
0
0
0
9.602536866e-21
2.015226353e-20
1.966369421e-19
2.208316449e-19
2.200970867e-19
2.013380867e-19
1.786485057e-19
9.21160682e-21
0
0
0
0
0
1.163063247e-17
1.576099489e-18
5.399997636e-20
0
0
0
0
0
0
0
0
9.852257268e-19
7.535645048e-16
1.047511287e-15
1.499917881e-15
2.359392886e-15
0
0
1.019475378e-14
1.503000447e-14
1.324785067e-14
0
0
0
0
0
0
0
0
0
0
0
0
0
0
0
0
0
0
0
0
0
0
0
0
0
0
1.978983188e-19
2.253700691e-19
2.363359391e-19
2.289483283e-19
2.0640412e-19
1.812977284e-19
1.066664302e-20
0
0
0
0
0
0
3.267321598e-19
0
0
0
0
0
0
0
0
0
0
5.079068296e-18
7.613856543e-16
1.065688038e-15
1.772619203e-15
3.11077021e-15
0
0
8.745329313e-15
1.458919438e-14
1.628096545e-14
1.231868054e-14
0
0
0
0
0
0
0
0
0
0
0
0
0
0
0
0
0
0
0
0
0
0
0
0
0
2.504699021e-19
2.511837821e-19
2.357122372e-19
2.003505491e-19
2.04725e-20
7.447333638e-21
0
0
0
0
0
0
0
0
0
0
0
0
0
0
0
0
0
0
0
6.456868184e-16
7.5900262e-16
7.606936249e-16
7.929849174e-16
0
0
0
1.099523608e-14
1.563254464e-14
1.343284816e-14
0
0
0
0
0
0
0
0
0
0
0
0
0
0
0
0
0
0
0
0
0
0
0
0
0
2.529336654e-19
2.309355621e-19
1.937643656e-19
1.743987129e-20
4.310988284e-21
0
0
0
0
0
0
0
0
0
0
0
0
0
0
0
0
0
0
0
0
1.862706198e-16
7.390124341e-16
7.220606281e-16
7.014201678e-16
0
0
0
1.032297988e-14
1.51619954e-14
1.330879117e-14
0
0
0
0
0
0
0
0
0
0
0
0
0
0
0
0
0
0
0
0
0
0
0
0
0