/*--------------------------------*- C++ -*----------------------------------*\
  =========                 |
  \\      /  F ield         | OpenFOAM: The Open Source CFD Toolbox
   \\    /   O peration     | Website:  https://openfoam.org
    \\  /    A nd           | Version:  10
     \\/     M anipulation  |
\*---------------------------------------------------------------------------*/
FoamFile
{
    format      ascii;
    class       volScalarField;
    location    "0.02498436188";
    object      HCCOH_0;
}
// * * * * * * * * * * * * * * * * * * * * * * * * * * * * * * * * * * * * * //

dimensions      [0 0 0 0 0 0 0];

internalField   nonuniform List<scalar> 
5170
(
0
0
0
0
0
0
0
0
0
0
0
0
0
0
0
0
0
0
0
0
0
0
0
0
0
0
0
0
0
0
0
0
0
0
0
0
0
0
0
0
0
0
0
0
0
0
0
0
0
0
0
0
0
0
0
0
0
0
0
0
0
0
0
0
0
0
0
0
0
0
0
0
0
0
0
0
0
0
0
0
0
0
0
0
0
0
0
0
0
0
0
0
9.653169765e-17
9.848763372e-16
4.097427454e-15
1.553573298e-15
8.810322992e-15
7.033731483e-14
4.934731785e-13
2.354336757e-12
2.989349162e-16
0
0
0
0
3.36955234e-16
0
0
0
2.376360076e-17
7.64580699e-17
3.031419793e-17
0
0
7.087706255e-19
8.781584601e-18
8.400163355e-17
0
0
1.036922276e-16
0
1.262029098e-15
0
0
0
0
2.475746207e-14
0
6.237059226e-14
2.098051246e-13
0
0
0
3.980188436e-11
1.762259899e-11
3.796774578e-11
0
0
1.354047566e-11
6.533868055e-10
6.356840924e-10
4.980853933e-11
4.252239273e-11
7.594308657e-11
0
1.177560638e-09
2.178855859e-09
7.666852017e-10
0
1.024624638e-10
7.068694375e-10
2.205378993e-09
7.638042097e-10
0
3.255780871e-10
3.4522555e-10
5.447011619e-10
0
0
4.577924379e-10
2.133426432e-10
2.86304055e-10
1.200399751e-11
2.770947857e-10
5.713545917e-10
2.180933142e-10
3.256091792e-10
2.480046631e-10
4.965051868e-10
6.175443375e-10
2.771427895e-10
3.757686822e-10
3.910963436e-10
4.880161443e-10
5.15253126e-10
3.3810054e-10
3.345872805e-10
3.661870009e-10
4.246897466e-10
4.15583242e-10
3.475238503e-10
3.341205376e-10
3.463659156e-10
3.417348129e-10
3.389506326e-10
3.467710775e-10
3.105761291e-10
3.000017563e-10
2.784290149e-10
2.084321897e-10
5.845299418e-10
3.825177953e-10
2.711296834e-10
2.60714113e-10
1.263180793e-10
2.609453824e-08
1.320747592e-08
1.69427866e-09
2.668989023e-10
3.543483966e-11
6.590375139e-14
4.965445164e-13
7.420933048e-12
1.071816246e-10
1.372711827e-09
1.860787901e-12
1.423811628e-11
2.040398834e-10
2.662740543e-09
2.841182667e-08
1.119447683e-11
7.766371957e-11
9.119656489e-10
8.870915951e-09
6.030249538e-08
4.306564953e-11
2.721115887e-10
2.705604535e-09
2.086032407e-08
1.037031568e-07
1.35946188e-10
7.930246771e-10
6.884540992e-09
4.388921189e-08
1.782022162e-07
3.88673847e-10
2.118557892e-09
1.577438158e-08
8.156744662e-08
2.74637841e-07
1.011735831e-09
5.089026963e-09
3.161688715e-08
1.314955018e-07
3.682620415e-07
2.390221575e-09
1.085630631e-08
5.536924593e-08
1.86527858e-07
4.408813107e-07
5.213845003e-09
2.097478182e-08
8.71524423e-08
2.434217953e-07
5.053577277e-07
1.06540344e-08
3.72902763e-08
1.271371903e-07
3.047889849e-07
5.78352261e-07
2.074450033e-08
6.231828495e-08
1.762955932e-07
3.738005489e-07
6.635987011e-07
3.962901864e-08
9.858623418e-08
2.346445879e-07
4.502125392e-07
7.528899052e-07
7.313862339e-08
1.477110399e-07
3.02251183e-07
5.323307126e-07
8.420765482e-07
1.229778618e-07
2.097542522e-07
3.784378578e-07
6.189102236e-07
9.315638071e-07
1.958477168e-07
2.882467482e-07
4.652979343e-07
7.119630902e-07
1.025636839e-06
2.895625498e-07
3.831093634e-07
5.640067916e-07
8.134169936e-07
1.125715466e-06
4.077207439e-07
4.992741553e-07
6.785922621e-07
9.246540007e-07
1.229462863e-06
5.496365281e-07
6.340948318e-07
8.027442012e-07
1.035200633e-06
1.321991657e-06
6.903921886e-07
7.630875572e-07
9.096524139e-07
1.10964057e-06
1.349602282e-06
8.085776581e-07
8.646596715e-07
9.752476224e-07
1.118600248e-06
1.276688403e-06
8.804708927e-07
9.1413182e-07
9.77155994e-07
1.050970749e-06
1.119795153e-06
8.722618793e-07
8.833633435e-07
9.025305555e-07
9.207021989e-07
9.297787206e-07
7.765608432e-07
7.764917244e-07
7.742493683e-07
7.668673354e-07
7.516064283e-07
6.421374292e-07
6.387007421e-07
6.302191422e-07
6.160581059e-07
5.957378042e-07
5.043854984e-07
5.007352727e-07
4.922485802e-07
4.790938472e-07
4.615880598e-07
3.79631236e-07
3.767516111e-07
3.702162532e-07
3.602386098e-07
3.471336812e-07
2.808015408e-07
2.787485458e-07
2.740402244e-07
2.668690193e-07
2.575114503e-07
2.026460806e-07
2.012382373e-07
1.980021983e-07
1.930769791e-07
1.866671562e-07
1.431291196e-07
1.421981156e-07
1.400520488e-07
1.367826986e-07
1.325290605e-07
9.922180508e-08
9.862393555e-08
9.724085221e-08
9.512980622e-08
9.238047359e-08
6.755122771e-08
6.717691148e-08
6.630730553e-08
6.497629061e-08
6.323963692e-08
4.505176028e-08
4.482327063e-08
4.42893146e-08
4.34690518e-08
4.23962864e-08
2.92933036e-08
2.915773435e-08
2.883848278e-08
2.834579327e-08
2.769974827e-08
1.84758223e-08
1.839811128e-08
1.82132191e-08
1.79262975e-08
1.754903415e-08
1.126169204e-08
1.121887696e-08
1.111570777e-08
1.095455766e-08
1.074205248e-08
6.620510469e-09
6.59793425e-09
6.542655347e-09
6.455646282e-09
6.340555986e-09
3.749834488e-09
3.738467424e-09
3.710083767e-09
3.66500367e-09
3.605175872e-09
2.044119894e-09
2.038677912e-09
2.024743743e-09
2.002371925e-09
1.972571727e-09
1.070709877e-09
1.068246839e-09
1.061732513e-09
1.051132967e-09
1.036954466e-09
5.377292546e-10
5.366875138e-10
5.338058045e-10
5.290361154e-10
5.226240548e-10
2.583015273e-10
2.578963026e-10
2.567008796e-10
2.54676929e-10
2.519391187e-10
1.183999229e-10
1.182593334e-10
1.178000911e-10
1.169975186e-10
1.159030579e-10
5.16862382e-11
5.164534487e-11
5.148498958e-11
5.119117356e-11
5.078598301e-11
2.145507587e-11
2.14470033e-11
2.139779804e-11
2.130028836e-11
2.116353298e-11
8.459537269e-12
8.46001407e-12
8.447757343e-12
8.419384887e-12
8.378437581e-12
3.166107498e-12
3.167716484e-12
3.165918167e-12
3.159237341e-12
3.148992831e-12
1.124370211e-12
1.125469251e-12
1.12586183e-12
1.124947989e-12
1.123195131e-12
3.788344614e-13
3.793893323e-13
3.798823454e-13
3.800857585e-13
3.80157332e-13
1.21108631e-13
1.213469486e-13
1.216240115e-13
1.218587007e-13
1.221017024e-13
3.671630795e-14
3.680771186e-14
3.692906929e-14
3.705331524e-14
3.719597091e-14
1.022202947e-14
1.024853952e-14
1.028946967e-14
1.033640818e-14
1.03933438e-14
2.787600008e-15
2.797239341e-15
2.811831524e-15
2.82899636e-15
2.849950811e-15
7.224014273e-16
7.25341716e-16
7.299719334e-16
7.356212316e-16
7.426220349e-16
1.778558815e-16
1.78687129e-16
1.800388661e-16
1.817331658e-16
1.83853738e-16
4.158677577e-17
4.180682569e-17
4.217370728e-17
4.264284413e-17
4.323431375e-17
9.224938929e-18
9.279681951e-18
9.372773441e-18
9.493664898e-18
9.646966568e-18
1.935557873e-18
1.948367937e-18
1.970503944e-18
1.999605225e-18
2.036683956e-18
3.806410908e-19
3.834534724e-19
3.883742105e-19
3.949065663e-19
4.03265039e-19
6.782207497e-20
6.841605617e-20
6.947303145e-20
7.089555844e-20
7.272883778e-20
1.059110226e-20
1.072051556e-20
1.095934787e-20
1.128775382e-20
1.170948199e-20
1.489464768e-21
1.512538986e-21
1.555726179e-21
1.615519291e-21
1.692369806e-21
1.852889745e-22
1.885422575e-22
1.94544338e-22
2.026534109e-22
2.126965416e-22
1.560819187e-23
1.580621955e-23
1.605655512e-23
1.619647454e-23
1.60657448e-23
0
0
0
0
0
0
0
0
0
0
0
0
0
0
0
0
0
0
0
0
0
0
0
0
0
0
0
0
0
0
0
0
0
0
0
4.851373804e-09
1.2011166e-07
1.683186553e-07
2.419341556e-07
3.918843521e-07
5.458318661e-07
6.473809515e-07
6.928117088e-07
7.443678882e-07
8.24081685e-07
9.21726665e-07
1.014344516e-06
1.100635808e-06
1.185679864e-06
1.276733272e-06
1.372731449e-06
1.467508258e-06
1.545310222e-06
1.531414509e-06
1.383368704e-06
1.156323012e-06
9.277658319e-07
7.36551727e-07
5.794010866e-07
4.482970303e-07
3.373197029e-07
2.506260212e-07
1.820038749e-07
1.294617495e-07
9.041257259e-08
6.200566175e-08
4.16409069e-08
2.72503906e-08
1.729093443e-08
1.059973514e-08
6.265513955e-09
3.56744358e-09
1.954551338e-09
1.028836064e-09
5.192142239e-10
2.506292943e-10
1.154586629e-10
5.066320461e-11
2.114358762e-11
8.383407687e-12
3.155884183e-12
1.127509485e-12
3.822663165e-13
1.229935754e-13
3.753452073e-14
1.050250668e-14
2.885832516e-15
7.534762405e-16
1.86915572e-16
4.404433759e-17
9.848529449e-18
2.08389656e-18
4.136544649e-19
7.493920632e-20
1.217670618e-20
1.774747826e-21
2.233041987e-22
1.595845911e-23
0
0
0
0
0
0
0
1.133825467e-08
7.26593139e-09
1.229446594e-09
3.454073442e-09
5.176017811e-10
3.701018625e-07
2.027569294e-06
1.169591927e-07
1.027831064e-08
3.043771411e-09
3.896909797e-07
9.432253524e-07
1.099937937e-07
7.192541564e-09
2.09584114e-09
5.258670732e-07
1.450334809e-06
4.695642926e-06
3.543278076e-07
2.875509367e-08
8.44231359e-07
2.501294881e-06
7.753731718e-06
7.782855654e-07
5.6830522e-08
1.08369234e-06
2.631212022e-06
5.796782649e-06
7.585755168e-07
7.146646097e-08
1.156563175e-06
2.24701515e-06
3.741362829e-06
5.877657892e-07
6.920405799e-08
1.120363953e-06
1.810670941e-06
2.463722666e-06
2.198128133e-06
2.790732056e-07
1.147233415e-06
1.89433314e-06
3.217598341e-06
7.256136684e-06
1.031793755e-06
1.241376296e-06
2.107829296e-06
3.667740652e-06
8.127407408e-06
1.355970783e-06
1.358209956e-06
2.268304397e-06
3.776278265e-06
7.545375771e-06
1.39322322e-06
1.448097465e-06
2.290497339e-06
3.509357297e-06
6.006165163e-06
1.54522225e-06
1.521695071e-06
2.301002929e-06
3.3685531e-06
5.543987272e-06
5.579066653e-06
1.595187946e-06
2.340031754e-06
3.365957429e-06
5.455992472e-06
8.178103858e-06
1.678614242e-06
2.409353487e-06
3.427022579e-06
5.45169521e-06
9.000589901e-06
1.766027217e-06
2.475358363e-06
3.4458043e-06
5.264355377e-06
8.559465091e-06
1.844349247e-06
2.509467538e-06
3.386750752e-06
4.970288302e-06
7.78875796e-06
1.898464093e-06
2.525157625e-06
3.381583732e-06
4.987681656e-06
7.769329479e-06
1.821827787e-06
2.332069759e-06
3.101276303e-06
4.755472621e-06
7.158646993e-06
1.550777067e-06
1.764245704e-06
1.973417728e-06
2.3498632e-06
3.284964949e-06
1.214755564e-06
1.228986886e-06
1.162207727e-06
1.023404089e-06
8.200693258e-07
9.289338308e-07
8.769604255e-07
7.738842946e-07
6.349273332e-07
4.826019213e-07
7.185956881e-07
6.598041514e-07
5.758583706e-07
4.790562101e-07
3.817538946e-07
5.592773571e-07
5.105544594e-07
4.487697751e-07
3.809601013e-07
3.137792507e-07
4.319981814e-07
3.954069027e-07
3.506843531e-07
3.022941835e-07
2.540993525e-07
3.254897556e-07
2.994085155e-07
2.678257363e-07
2.336650502e-07
1.99396352e-07
2.42591027e-07
2.244917242e-07
2.023772374e-07
1.782856926e-07
1.539112703e-07
1.767583297e-07
1.645554738e-07
1.494120788e-07
1.327464513e-07
1.157281004e-07
1.261414112e-07
1.181205773e-07
1.079831089e-07
9.669581617e-08
8.505425711e-08
8.836560881e-08
8.321207113e-08
7.656738908e-08
6.907366599e-08
6.126074061e-08
6.077944256e-08
5.754007157e-08
5.3269409e-08
4.838471951e-08
4.323241829e-08
4.093372456e-08
3.894621217e-08
3.625670406e-08
3.313237593e-08
2.979662384e-08
2.686358377e-08
2.567962869e-08
2.402625712e-08
2.20724792e-08
1.996049393e-08
1.709412076e-08
1.641394916e-08
1.542721194e-08
1.423911138e-08
1.293855521e-08
1.050904494e-08
1.013442905e-08
9.565578465e-09
8.866444263e-09
8.091229753e-09
6.229519222e-09
6.032518545e-09
5.716695483e-09
5.319781646e-09
4.873810266e-09
3.556868295e-09
3.458283857e-09
3.289668654e-09
3.072566273e-09
2.82527878e-09
1.954159854e-09
1.907436822e-09
1.820979304e-09
1.706681122e-09
1.57464294e-09
1.03149857e-09
1.010704348e-09
9.682223215e-10
9.10396269e-10
8.426071734e-10
5.220424576e-10
5.134777226e-10
4.935423533e-10
4.654990762e-10
4.321104414e-10
2.527392471e-10
2.495569836e-10
2.406612686e-10
2.276655409e-10
2.119328836e-10
1.167895919e-10
1.157772021e-10
1.120206469e-10
1.062844354e-10
9.921288611e-11
5.14121515e-11
5.117510705e-11
4.968143929e-11
4.727712307e-11
4.425302236e-11
2.15280461e-11
2.151929024e-11
2.096310223e-11
2.000860853e-11
1.878087466e-11
8.565485695e-12
8.599258867e-12
8.406538896e-12
8.048421353e-12
7.576023052e-12
3.23596935e-12
3.263248997e-12
3.201634853e-12
3.074884462e-12
2.902829177e-12
1.160367854e-12
1.175503873e-12
1.157567268e-12
1.115318779e-12
1.056055225e-12
3.948825938e-13
4.019004619e-13
3.972581804e-13
3.840183983e-13
3.647262919e-13
1.27538098e-13
1.30420613e-13
1.294078337e-13
1.255145949e-13
1.195824104e-13
3.907150125e-14
4.014604909e-14
3.998847391e-14
3.891724892e-14
3.719586991e-14
1.096765438e-14
1.13183578e-14
1.131456482e-14
1.10463586e-14
1.058834753e-14
3.027004269e-15
3.13956759e-15
3.150947618e-15
3.086953423e-15
2.968826117e-15
7.936198301e-16
8.273157024e-16
8.336852385e-16
8.196688483e-16
7.909628428e-16
1.976934655e-16
2.071416982e-16
2.09594002e-16
2.068160854e-16
2.00254485e-16
4.67812832e-17
4.927121196e-17
5.006168581e-17
4.957887583e-17
4.817121521e-17
1.050636921e-17
1.112438859e-17
1.13506007e-17
1.128267916e-17
1.100030375e-17
2.233508813e-18
2.378068015e-18
2.436945489e-18
2.431413747e-18
2.378792464e-18
4.457898232e-19
4.776344291e-19
4.917895506e-19
4.926710185e-19
4.838528052e-19
8.154506737e-20
8.833864251e-20
9.171284209e-20
9.250764661e-20
9.138788714e-20
1.347104196e-20
1.484804328e-20
1.559089781e-20
1.584088981e-20
1.571347909e-20
1.993882121e-21
2.231237588e-21
2.360240928e-21
2.395154108e-21
2.347633913e-21
2.52622873e-22
2.800515021e-22
2.858128671e-22
2.691682006e-22
2.295338764e-22
1.712309613e-23
1.463548965e-23
6.241877077e-24
3.334984717e-24
1.21989964e-24
0
0
0
0
0
0
0
0
0
0
0
0
0
0
0
0
0
0
0
0
0
0
0
0
0
0
0
0
0
0
0
0
0
0
0
6.574578163e-11
4.077639843e-12
2.635585946e-13
3.657137589e-14
9.004783316e-15
2.795905793e-15
9.125826624e-16
2.956027075e-16
9.291798429e-17
2.786668818e-17
7.739290092e-18
1.820453205e-18
2.392172376e-19
0
0
0
0
0
0
0
0
0
0
0
0
0
0
0
0
0
0
0
0
0
0
0
0
0
0
0
0
0
0
0
0
0
0
0
0
0
0
0
0
0
0
0
0
0
0
0
5.492633445e-10
4.294399707e-11
2.333044046e-12
2.080913866e-13
3.737834047e-14
1.029897472e-14
3.455584209e-15
1.237639362e-15
4.428868122e-16
1.528138195e-16
4.959854504e-17
1.471564998e-17
3.762333066e-18
6.900319337e-19
7.945605144e-21
0
0
0
0
0
0
0
0
0
0
0
0
0
0
0
0
0
0
0
0
0
0
0
0
0
0
0
0
0
0
0
0
0
0
0
0
0
0
0
0
0
0
0
0
0
7.677566777e-10
1.014948799e-10
6.686603431e-12
6.133743272e-13
1.092848542e-13
3.168837018e-14
1.186315352e-14
4.870689543e-15
1.993560399e-15
7.787923374e-16
2.83101979e-16
9.408949847e-17
2.810800076e-17
7.303393894e-18
1.485524706e-18
1.26985758e-19
0
0
0
0
0
0
0
0
0
0
0
0
0
0
0
0
0
0
0
0
0
0
0
0
0
0
0
0
0
0
0
0
0
0
0
0
0
0
0
0
0
0
0
0
8.40067523e-09
1.641145042e-09
1.326526588e-10
7.6348675e-12
8.912902643e-13
2.074753326e-13
7.168974618e-14
2.878150216e-14
1.186261166e-14
4.74884437e-15
1.787361878e-15
6.193562391e-16
1.948374949e-16
5.491098159e-17
1.355431587e-17
2.73021322e-18
3.124166909e-19
0
0
0
0
0
0
0
0
0
0
0
0
0
0
0
0
0
0
0
0
0
0
0
0
0
0
0
0
0
0
0
0
0
0
0
0
0
0
0
0
0
0
0
1.653260838e-08
5.144988025e-09
9.44983376e-10
8.129094492e-11
7.730315196e-12
1.431941935e-12
4.257742754e-13
1.566974514e-13
6.141765504e-14
2.390879555e-14
8.898261124e-15
3.091642456e-15
9.890678326e-16
2.866195511e-16
7.399928128e-17
1.661598524e-17
2.983899245e-18
3.093320657e-19
0
0
0
0
0
0
0
0
0
0
0
0
0
0
0
0
0
0
0
0
0
0
0
0
0
0
0
0
0
0
0
0
0
0
0
0
0
0
0
0
0
0
1.394035996e-08
6.61462832e-09
2.252671046e-09
4.296622526e-10
4.31495445e-11
6.093020586e-12
1.505908716e-12
5.069940083e-13
1.90887502e-13
7.285616177e-14
2.68729281e-14
9.330177251e-15
2.996012147e-15
8.773198802e-16
2.31234896e-16
5.421315013e-17
1.080687137e-17
1.687667125e-18
9.138724627e-20
0
0
0
0
0
0
0
0
0
0
0
0
0
0
0
0
0
0
0
0
0
0
0
0
0
0
0
0
0
0
0
0
0
0
0
0
0
0
0
0
0
8.85126235e-09
4.943165829e-09
2.752998649e-09
1.069856508e-09
2.024794718e-10
2.362201539e-11
4.469562856e-12
1.322366182e-12
4.751887255e-13
1.782640697e-13
6.537670601e-14
2.268362247e-14
7.306754699e-15
2.158428759e-15
5.792505606e-16
1.396585282e-16
2.92979863e-17
5.254133292e-18
6.300920139e-19
2.590458515e-22
0
0
0
0
0
0
0
0
0
0
0
0
0
0
0
0
0
0
0
0
0
0
0
0
0
0
0
0
0
0
0
0
0
0
0
0
0
0
0
0
2.131559336e-08
6.144807801e-09
3.746571902e-09
2.012932028e-09
7.350750908e-10
1.09656695e-10
1.497146727e-11
3.523243569e-12
1.136075766e-12
4.071034394e-13
1.458999494e-13
4.991089259e-14
1.592377089e-14
4.6780536e-15
1.255983763e-15
3.059102082e-16
6.59601899e-17
1.271607882e-17
1.940230533e-18
1.186591193e-19
0
0
0
0
0
0
0
0
0
0
0
0
0
0
0
0
0
0
0
0
0
0
0
0
0
0
0
0
0
0
0
0
0
0
0
0
0
0
0
0
9.162531585e-08
1.489447595e-08
7.207704861e-09
4.156774356e-09
2.178127498e-09
5.67993407e-10
6.552137448e-11
1.076870744e-11
2.856597652e-12
9.272233769e-13
3.141033373e-13
1.034753874e-13
3.211869015e-14
9.250308786e-15
2.453990919e-15
5.965601699e-16
1.301949262e-16
2.616050089e-17
4.493118575e-18
5.045774871e-19
0
0
0
0
0
0
0
0
0
0
0
0
0
0
0
0
0
0
0
0
0
0
0
0
0
0
0
0
0
0
0
0
0
0
0
0
0
0
0
0
1.650121864e-07
1.969355168e-08
8.570923065e-09
5.654861086e-09
3.679770078e-09
1.688363529e-09
2.750502524e-10
3.25189045e-11
6.802177009e-12
1.95353234e-12
6.186244498e-13
1.949873629e-13
5.862188053e-14
1.650707293e-14
4.323587191e-15
1.049784089e-15
2.319564748e-16
4.826676793e-17
8.965397533e-18
1.293354365e-18
5.014978082e-20
0
0
0
0
0
0
0
0
0
0
0
0
0
0
0
0
0
0
0
0
0
0
0
0
0
0
0
0
0
0
0
0
0
0
0
0
0
0
0
2.036742894e-07
1.975485831e-08
7.240280653e-09
5.642130229e-09
4.52525412e-09
2.93927383e-09
7.960234788e-10
9.552416502e-11
1.554559158e-11
3.818557738e-12
1.105638895e-12
3.292152208e-13
9.523858465e-14
2.619044321e-14
6.800146645e-15
1.662694767e-15
3.75697168e-16
8.147912755e-17
1.619602634e-17
2.713696635e-18
2.529757636e-19
0
0
0
0
0
0
0
0
0
0
0
0
0
0
0
0
0
0
0
0
0
0
0
0
0
0
0
0
0
0
0
0
0
0
0
0
0
0
0
2.073907725e-07
2.262898813e-08
5.64778355e-09
4.878683772e-09
4.831799957e-09
3.954329927e-09
1.758105794e-09
2.659515523e-10
3.774112002e-11
7.51606749e-12
1.890869875e-12
5.151955412e-13
1.407348097e-13
3.748106702e-14
9.653675686e-15
2.394805805e-15
5.594938092e-16
1.275157619e-16
2.704068125e-17
5.040098553e-18
6.648103345e-19
3.252342379e-21
0
0
0
0
0
0
0
0
0
0
0
0
0
0
0
0
0
0
0
0
0
0
0
0
0
0
0
0
0
0
0
0
0
0
0
0
0
0
7.932866709e-07
9.659467097e-08
1.308489366e-08
6.553582784e-09
6.248517232e-09
5.560051556e-09
3.233599162e-09
7.065119918e-10
9.035749761e-11
1.487045421e-11
3.097027305e-12
7.438081745e-13
1.881764485e-13
4.828450468e-14
1.239588409e-14
3.150289158e-15
7.685183543e-16
1.84942525e-16
4.172017528e-17
8.440035551e-18
1.342441041e-18
7.185563203e-20
0
0
0
0
0
0
0
0
0
0
0
0
0
0
0
0
0
0
0
0
0
0
0
0
0
0
0
0
0
0
0
0
0
0
0
0
0
0
1.306977346e-06
1.840978047e-07
2.380258942e-08
7.781675102e-09
7.740484619e-09
7.625157487e-09
5.300002195e-09
1.681073604e-09
2.155034318e-10
3.068413045e-11
5.165959373e-12
1.052086327e-12
2.400268174e-13
5.862158941e-14
1.498454688e-14
3.909803454e-15
9.950364986e-16
2.510450833e-16
5.951437796e-17
1.278928326e-17
2.280250033e-18
2.20257274e-19
0
0
0
0
0
0
0
0
0
0
0
0
0
0
0
0
0
0
0
0
0
0
0
0
0
0
0
0
0
0
0
0
0
0
0
0
0
0
1.591949008e-06
2.575063877e-07
3.514769112e-08
8.476432906e-09
8.976048355e-09
9.888610314e-09
7.572869792e-09
3.313133312e-09
5.11888551e-10
6.706795079e-11
8.701915226e-12
1.414243136e-12
2.833883128e-13
6.59366605e-14
1.695387065e-14
4.566053563e-15
1.20893647e-15
3.16588645e-16
7.786693115e-17
1.746897755e-17
3.348208716e-18
4.164079908e-19
0
0
0
0
0
0
0
0
0
0
0
0
0
0
0
0
0
0
0
0
0
0
0
0
0
0
0
0
0
0
0
0
0
0
0
0
0
0
1.670880071e-06
2.816952019e-07
4.35075902e-08
8.907719134e-09
1.056200141e-08
1.26838427e-08
9.966938064e-09
5.18501833e-09
1.102434993e-09
1.508130129e-10
1.535605932e-11
1.870137485e-12
3.180480961e-13
7.098039064e-14
1.856329544e-14
5.15194639e-15
1.404863258e-15
3.767089184e-16
9.491244366e-17
2.190883409e-17
4.380777052e-18
6.183419653e-19
4.823975117e-21
0
0
0
0
0
0
0
0
0
0
0
0
0
0
0
0
0
0
0
0
0
0
0
0
0
0
0
0
0
0
0
0
0
0
0
0
0
1.691359469e-06
2.97627465e-07
5.081706361e-08
1.065569732e-08
1.506903282e-08
1.678835316e-08
1.240806009e-08
6.672689156e-09
2.079214425e-09
3.219738002e-10
2.842067344e-11
2.623632007e-12
3.810995248e-13
8.199815022e-14
2.146613336e-14
5.983270711e-15
1.645037875e-15
4.441600591e-16
1.125685713e-16
2.616568779e-17
5.325922256e-18
8.031280813e-19
1.863807304e-20
0
0
0
0
0
0
0
0
0
0
0
0
0
0
0
0
0
0
0
0
0
0
0
0
0
0
0
0
0
0
0
0
0
0
0
0
0
1.684901305e-06
3.041168864e-07
4.77559152e-08
2.352222078e-08
2.485647613e-08
2.171158394e-08
1.467644984e-08
7.840935556e-09
3.03130343e-09
6.672211601e-10
6.707786986e-11
5.362114179e-12
6.442020404e-13
1.203702434e-13
2.90052874e-14
7.70948191e-15
2.056093623e-15
5.429876486e-16
1.355522227e-16
3.122803035e-17
6.36770001e-18
9.969472962e-19
4.057603556e-20
0
0
0
0
0
0
0
0
0
0
0
0
0
0
0
0
0
0
0
0
0
0
0
0
0
0
0
0
0
0
0
0
0
0
0
0
0
1.457043759e-06
2.645310605e-07
3.746547499e-08
3.599607103e-08
3.558464555e-08
2.670729505e-08
1.671815531e-08
8.901477008e-09
3.909926046e-09
1.261071154e-09
2.328905346e-10
2.284434248e-11
2.041499269e-12
2.612208927e-13
4.893522309e-14
1.142739549e-14
2.848822941e-15
7.224907785e-16
1.756534019e-16
3.976625786e-17
8.064616013e-18
1.301611316e-18
7.797795171e-20
0
0
0
0
0
0
0
0
0
0
0
0
0
0
0
0
0
0
0
0
0
0
0
0
0
0
0
0
0
0
0
0
0
0
0
0
0
6.149596153e-07
1.441936732e-07
8.810590701e-08
6.582852239e-08
4.748138297e-08
3.141022102e-08
1.889432699e-08
1.022859208e-08
4.898270893e-09
1.996837452e-09
6.077555611e-10
1.071861608e-10
1.041133853e-11
9.31501652e-13
1.166896088e-13
2.094305298e-14
4.578468934e-15
1.085759645e-15
2.542863303e-16
5.631577044e-17
1.134448241e-17
1.893466106e-18
1.603962401e-19
0
0
0
0
0
0
0
0
0
0
0
0
0
0
0
0
0
0
0
0
0
0
0
0
0
0
0
0
0
0
0
0
0
0
0
0
0
3.69176559e-07
1.995287657e-07
1.279438125e-07
8.511666923e-08
5.615182128e-08
3.558326266e-08
2.123844557e-08
1.17888911e-08
6.010621522e-09
2.760386159e-09
1.093249599e-09
3.256665677e-10
5.626242875e-11
5.300800681e-12
4.558821668e-13
5.424348829e-14
9.084571401e-15
1.886234309e-15
4.146070967e-16
8.904383591e-17
1.777661265e-17
3.062991013e-18
3.375766249e-19
0
0
0
0
0
0
0
0
0
0
0
0
0
0
0
0
0
0
0
0
0
0
0
0
0
0
0
0
0
0
0
0
0
0
0
0
0
3.219934528e-07
2.122400587e-07
1.411844666e-07
9.382611775e-08
6.129253475e-08
3.872399815e-08
2.338878661e-08
1.338349211e-08
7.189295813e-09
3.577182756e-09
1.610565024e-09
6.261778351e-10
1.828762323e-10
3.060363425e-11
2.72688588e-12
2.205937152e-13
2.44230094e-14
3.87592466e-15
7.489936582e-16
1.51923263e-16
2.972627549e-17
5.22685704e-18
6.814299934e-19
5.523552502e-21
0
0
0
0
0
0
0
0
0
0
0
0
0
0
0
0
0
0
0
0
0
0
0
0
0
0
0
0
0
0
0
0
0
0
0
0
2.840246076e-07
2.011051883e-07
1.395683134e-07
9.493668913e-08
6.296949757e-08
4.04339988e-08
2.49779291e-08
1.475940402e-08
8.287734417e-09
4.379581624e-09
2.143195025e-09
9.451751037e-10
3.577597875e-10
1.008374547e-10
1.595671393e-11
1.307012476e-12
9.714867874e-14
1.022112609e-14
1.522372336e-15
2.740196337e-16
5.120323709e-17
9.014397917e-18
1.297203628e-18
6.159815841e-20
0
0
0
0
0
0
0
0
0
0
0
0
0
0
0
0
0
0
0
0
0
0
0
0
0
0
0
0
0
0
0
0
0
0
0
0
2.448634687e-07
1.80953787e-07
1.297981847e-07
9.054276863e-08
6.138475317e-08
4.030823652e-08
2.554231294e-08
1.556371418e-08
9.075535444e-09
5.027059164e-09
2.61384427e-09
1.251930687e-09
5.359373438e-10
1.948609371e-10
5.201952949e-11
7.602407081e-12
5.56339148e-13
3.871193963e-14
3.861629088e-15
5.437100957e-16
9.143057517e-17
1.56552078e-17
2.372106976e-18
1.971214786e-19
0
0
0
0
0
0
0
0
0
0
0
0
0
0
0
0
0
0
0
0
0
0
0
0
0
0
0
0
0
0
0
0
0
0
0
0
2.03526247e-07
1.543808671e-07
1.134835788e-07
8.142416786e-08
5.647516555e-08
3.795975203e-08
2.468493105e-08
1.548452952e-08
9.335189608e-09
5.376513958e-09
2.930726388e-09
1.490895526e-09
6.930380092e-10
2.848544666e-10
9.798546486e-11
2.421294615e-11
3.178849865e-12
2.10269517e-13
1.366622905e-14
1.303008074e-15
1.738969897e-16
2.716365203e-17
4.124015173e-18
4.338588016e-19
5.784476969e-23
0
0
0
0
0
0
0
0
0
0
0
0
0
0
0
0
0
0
0
0
0
0
0
0
0
0
0
0
0
0
0
0
0
0
0
1.629798304e-07
1.269517726e-07
9.60135565e-08
7.048480775e-08
5.014427002e-08
3.451376932e-08
2.296613811e-08
1.478869888e-08
9.177559834e-09
5.460954632e-09
3.091798669e-09
1.64721515e-09
8.129104516e-10
3.63107465e-10
1.416076463e-10
4.537651535e-11
1.012952016e-11
1.15712144e-12
6.811754571e-14
4.185796715e-15
3.837771138e-16
4.837979756e-17
6.836391549e-18
7.867781016e-19
1.176668868e-20
0
0
0
0
0
0
0
0
0
0
0
0
0
0
0
0
0
0
0
0
0
0
0
0
0
0
0
0
0
0
0
0
0
0
0
1.277186055e-07
1.013116421e-07
7.802415764e-08
5.838075923e-08
4.24409173e-08
2.994083658e-08
2.044686506e-08
1.349464383e-08
8.584309536e-09
5.249826519e-09
3.065829645e-09
1.694110457e-09
8.748539738e-10
4.149514487e-10
1.762112451e-10
6.437906255e-11
1.889623168e-11
3.699003485e-12
3.51772048e-13
1.820104411e-14
1.063611153e-15
9.38336728e-17
1.098646636e-17
1.237925181e-18
4.81999639e-20
0
0
0
0
0
0
0
0
0
0
0
0
0
0
0
0
0
0
0
0
0
0
0
0
0
0
0
0
0
0
0
0
0
0
0
9.724949263e-08
7.83106069e-08
6.129229065e-08
4.666265591e-08
3.455907717e-08
2.488404397e-08
1.739183148e-08
1.176115607e-08
7.67038659e-09
4.801970382e-09
2.876044238e-09
1.635834586e-09
8.747265699e-10
4.33747089e-10
1.956284763e-10
7.79852936e-11
2.628174594e-11
6.918022417e-12
1.148166272e-12
8.77859031e-14
4.034767328e-15
2.271763658e-16
1.912931212e-17
1.873950424e-18
9.886313933e-20
0
0
0
0
0
0
0
0
0
0
0
0
0
0
0
0
0
0
0
0
0
0
0
0
0
0
0
0
0
0
0
0
0
0
0
7.228213915e-08
5.898907277e-08
4.684487331e-08
3.622241351e-08
2.727275506e-08
1.998180136e-08
1.422543287e-08
9.816121033e-09
6.539401078e-09
4.188163185e-09
2.564653788e-09
1.492238897e-09
8.196802208e-10
4.202981434e-10
1.981045595e-10
8.398466777e-11
3.101034578e-11
9.492537953e-12
2.199188959e-12
3.033350854e-13
1.877049783e-14
8.001527724e-16
4.420851837e-17
3.306382587e-18
1.972691648e-19
0
0
0
0
0
0
0
0
0
0
0
0
0
0
0
0
0
0
0
0
0
0
0
0
0
0
0
0
0
0
0
0
0
0
0
5.259564948e-08
4.343843087e-08
3.493849774e-08
2.738021502e-08
2.090345396e-08
1.55354746e-08
1.122372652e-08
7.865136731e-09
5.328752463e-09
3.474465384e-09
2.169514977e-09
1.289328208e-09
7.230594318e-10
3.803862178e-10
1.853577895e-10
8.222499747e-11
3.240399123e-11
1.094542817e-11
3.001091875e-12
5.992748071e-13
6.73758904e-14
3.42469734e-15
1.369139578e-16
7.068239795e-18
3.933629564e-19
0
0
0
0
0
0
0
0
0
0
0
0
0
0
0
0
0
0
0
0
0
0
0
0
0
0
0
0
0
0
0
0
0
0
0
3.745351811e-08
3.125275894e-08
2.540860899e-08
2.013222227e-08
1.554213101e-08
1.168110792e-08
8.535038594e-09
6.050514685e-09
4.150074098e-09
2.743808313e-09
1.739548148e-09
1.051586457e-09
6.018493174e-10
3.227847367e-10
1.612518781e-10
7.39722702e-11
3.056330179e-11
1.106956022e-11
3.377689882e-12
8.175662704e-13
1.374324227e-13
1.21709551e-14
5.027943947e-16
1.799264427e-17
7.887751684e-19
2.020081434e-22
0
0
0
0
0
0
0
0
0
0
0
0
0
0
0
0
0
0
0
0
0
0
0
0
0
0
0
0
0
0
0
0
0
0
2.60130071e-08
2.189265262e-08
1.795406158e-08
1.43499399e-08
1.117419763e-08
8.470343271e-09
6.241915233e-09
4.463169682e-09
3.088772549e-09
2.062272981e-09
1.322734041e-09
8.103884803e-10
4.711628426e-10
2.577776406e-10
1.312824077e-10
6.179971455e-11
2.646912046e-11
1.009785532e-11
3.330314562e-12
9.084218952e-13
1.911784369e-13
2.650099547e-14
1.826890509e-15
6.047373928e-17
1.947069022e-18
1.013783342e-20
0
0
0
0
0
0
0
0
0
0
0
0
0
0
0
0
0
0
0
0
0
0
0
0
0
0
0
0
0
0
0
0
0
0
1.753888551e-08
1.486428089e-08
1.227495479e-08
9.877892855e-09
7.743152261e-09
5.907820312e-09
4.381658953e-09
3.153428914e-09
2.197107385e-09
1.477580549e-09
9.555483537e-10
5.913491764e-10
3.480388958e-10
1.933820803e-10
1.004417382e-10
4.827589074e-11
2.127371209e-11
8.448255209e-12
2.953752945e-12
8.794862907e-13
2.12000034e-13
3.817029106e-14
4.210006221e-15
2.064238892e-16
5.712733185e-18
6.787601112e-20
0
0
0
0
0
0
0
0
0
0
0
0
0
0
0
0
0
0
0
0
0
0
0
0
0
0
0
0
0
0
0
0
0
0
1.143174076e-08
9.744903733e-09
8.092980321e-09
6.548258876e-09
5.160226752e-09
3.957293835e-09
2.949782415e-09
2.133627376e-09
1.494309629e-09
1.010545241e-09
6.575981428e-10
4.099993845e-10
2.43555859e-10
1.369027545e-10
7.222356222e-11
3.536303675e-11
1.594401407e-11
6.537044154e-12
2.391786113e-12
7.609356604e-13
2.026538247e-13
4.25069735e-14
6.403816042e-15
5.214523194e-16
1.870398112e-17
2.983597467e-19
0
0
0
0
0
0
0
0
0
0
0
0
0
0
0
0
0
0
0
0
0
0
0
0
0
0
0
0
0
0
0
0
0
0
7.183889023e-09
6.154731106e-09
5.136024209e-09
4.174740412e-09
3.30414125e-09
2.544415934e-09
1.90422279e-09
1.382804845e-09
9.723582415e-10
6.603730638e-10
4.317698276e-10
2.707045225e-10
1.619628285e-10
9.190583349e-11
4.909006234e-11
2.444892317e-11
1.123506485e-11
4.728085611e-12
1.794041268e-12
6.011737087e-13
1.726278397e-13
4.054387846e-14
7.336331915e-15
8.654559315e-16
5.460411879e-17
1.307076592e-18
0
0
0
0
0
0
0
0
0
0
0
0
0
0
0
0
0
0
0
0
0
0
0
0
0
0
0
0
0
0
0
0
0
0
4.346522861e-09
3.740646529e-09
3.134739472e-09
2.558118704e-09
2.032123889e-09
1.570271902e-09
1.179005573e-09
8.588556214e-10
6.058192001e-10
4.127887826e-10
2.708775354e-10
1.705647424e-10
1.025983358e-10
5.863288309e-11
3.162150593e-11
1.596537305e-11
7.466118816e-12
3.209991266e-12
1.254548201e-12
4.381223284e-13
1.333767772e-13
3.401863447e-14
6.708142046e-15
9.463209167e-16
8.493369495e-17
3.335340285e-18
2.108597387e-21
0
0
0
0
0
0
0
0
0
0
0
0
0
0
0
0
0
0
0
0
0
0
0
0
0
0
0
0
0
0
0
0
0
2.529931091e-09
2.18618062e-09
1.838981585e-09
1.505901461e-09
1.200030339e-09
9.299482096e-10
7.000606966e-10
5.112105948e-10
3.614527618e-10
2.468857812e-10
1.62449297e-10
1.026234689e-10
6.198904293e-11
3.56291915e-11
1.936910418e-11
9.886333219e-12
4.695121231e-12
2.055343632e-12
8.232112992e-13
2.97334409e-13
9.490688242e-14
2.578123131e-14
5.52720116e-15
8.79345059e-16
9.84904109e-17
5.924932831e-18
6.24149315e-20
0
0
0
0
0
0
0
0
0
0
0
0
0
0
0
0
0
0
0
0
0
0
0
0
0
0
0
0
0
0
0
0
0
1.415340734e-09
1.227561096e-09
1.036066699e-09
8.509615392e-10
6.799264998e-10
5.28138147e-10
3.984043027e-10
2.914721828e-10
2.06447672e-10
1.412627103e-10
9.313545021e-11
5.898069516e-11
3.574253018e-11
2.063471137e-11
1.128766556e-11
5.812900599e-12
2.796531354e-12
1.244261276e-12
5.086836981e-13
1.889311994e-13
6.265896945e-14
1.798602252e-14
4.062692919e-15
4.999773531e-16
5.183307409e-17
3.109688607e-18
3.345335449e-20
0
0
0
0
0
0
0
0
0
0
0
0
0
0
0
0
0
0
0
0
0
0
0
0
0
0
0
0
0
0
0
0
0
7.599863502e-10
6.613597076e-10
5.598436316e-10
4.610127349e-10
3.69176785e-10
2.873065676e-10
2.170811448e-10
1.590369096e-10
1.127863792e-10