/*--------------------------------*- C++ -*----------------------------------*\
  =========                 |
  \\      /  F ield         | OpenFOAM: The Open Source CFD Toolbox
   \\    /   O peration     | Website:  https://openfoam.org
    \\  /    A nd           | Version:  10
     \\/     M anipulation  |
\*---------------------------------------------------------------------------*/
FoamFile
{
    format      ascii;
    class       volScalarField;
    location    "0.02498436188";
    object      HCCOH;
}
// * * * * * * * * * * * * * * * * * * * * * * * * * * * * * * * * * * * * * //

dimensions      [0 0 0 0 0 0 0];

internalField   nonuniform List<scalar> 
5170
(
0
0
0
0
0
0
0
0
0
0
0
0
0
0
0
0
0
0
0
0
0
0
0
0
0
0
0
0
0
0
0
0
0
0
0
0
0
0
0
0
0
0
0
0
0
0
0
0
0
0
0
0
0
0
0
0
0
0
0
0
0
0
0
0
0
0
0
0
0
0
0
0
0
0
0
0
0
0
0
0
0
0
0
0
0
0
0
0
0
0
0
0
9.452876736e-17
9.811669655e-16
4.087457249e-15
1.549218316e-15
8.795213183e-15
7.021570258e-14
4.923824068e-13
2.347904987e-12
2.461940892e-16
5.562692867e-18
6.418103482e-18
6.731598141e-18
5.559672002e-18
2.921719852e-16
0
0
0
0
5.064393924e-17
2.287207077e-17
0
6.769860166e-19
3.804057129e-19
8.187831967e-18
6.974041163e-17
0
0
0
3.699060975e-17
1.059947289e-15
0
0
0
0
1.055356242e-14
0
6.534797681e-14
0
0
0
0
3.544226515e-11
0
0
0
0
0
5.164175715e-10
4.962282981e-10
2.005953376e-11
9.53342948e-12
4.432441832e-11
0
1.054564326e-09
1.934494125e-09
6.405287515e-10
0
8.382921007e-11
7.260483887e-10
2.054290043e-09
6.578433641e-10
1.65620512e-12
3.029078443e-10
3.500746316e-10
5.856420545e-10
0
7.13681732e-12
4.354951518e-10
2.076756477e-10
2.889710362e-10
4.158206687e-12
2.502003651e-10
5.513227078e-10
2.066652464e-10
3.095978795e-10
2.243024549e-10
4.691970111e-10
6.014731223e-10
2.634986925e-10
3.589847998e-10
3.694855265e-10
4.744266828e-10
5.048628315e-10
3.228708077e-10
3.250270931e-10
3.555572911e-10
4.146356348e-10
4.072259078e-10
3.340388118e-10
3.220049009e-10
3.350875125e-10
3.338167952e-10
3.211796192e-10
3.349628565e-10
2.997020065e-10
2.903640857e-10
2.703756217e-10
1.989671284e-10
5.630210315e-10
3.717820882e-10
2.62381966e-10
2.403402872e-10
1.163165758e-10
2.573699077e-08
1.318165278e-08
1.671736877e-09
2.704999709e-10
3.999269493e-11
6.575299159e-14
4.954339611e-13
7.402548767e-12
1.068570335e-10
1.368121361e-09
1.851792721e-12
1.416979295e-11
2.031880757e-10
2.652919753e-09
2.832459934e-08
1.116078788e-11
7.734682847e-11
9.081118103e-10
8.836350521e-09
6.007388807e-08
4.302172099e-11
2.718921985e-10
2.701945877e-09
2.081575676e-08
1.034675609e-07
1.357315266e-10
7.921405026e-10
6.876263159e-09
4.383300526e-08
1.78026115e-07
3.879208071e-10
2.113309307e-09
1.574254229e-08
8.147335724e-08
2.744459583e-07
1.011257376e-09
5.083558397e-09
3.158257961e-08
1.313904063e-07
3.680151235e-07
2.391856199e-09
1.086084638e-08
5.53667099e-08
1.86465426e-07
4.407131416e-07
5.21854991e-09
2.099271194e-08
8.718813026e-08
2.43437039e-07
5.053672304e-07
1.065762367e-08
3.730365754e-08
1.271663824e-07
3.048288116e-07
5.784448677e-07
2.074245463e-08
6.23032702e-08
1.762748877e-07
3.738130468e-07
6.636795826e-07
3.951293708e-08
9.847436934e-08
2.345489417e-07
4.501588052e-07
7.528851933e-07
7.307287814e-08
1.476618204e-07
3.022213658e-07
5.323560807e-07
8.421733236e-07
1.230428585e-07
2.098303763e-07
3.785772899e-07
6.191242666e-07
9.31864378e-07
1.960436404e-07
2.884843475e-07
4.656170444e-07
7.123727501e-07
1.026148099e-06
2.899747751e-07
3.835079275e-07
5.644295571e-07
8.13910454e-07
1.12633952e-06
4.079820204e-07
4.9958811e-07
6.790506229e-07
9.253520091e-07
1.230432758e-06
5.503750436e-07
6.350520191e-07
8.041400066e-07
1.037239879e-06
1.324812947e-06
6.925353627e-07
7.656142378e-07
9.131333225e-07
1.114936668e-06
1.358009749e-06
8.123105287e-07
8.690348528e-07
9.812058478e-07
1.127380719e-06
1.289969043e-06
8.85944769e-07
9.204177268e-07
9.852583328e-07
1.061852125e-06
1.13433076e-06
8.799616161e-07
8.91638186e-07
9.119449848e-07
9.315932149e-07
9.422929274e-07
7.848361895e-07
7.849576407e-07
7.83090997e-07
7.761131531e-07
7.61204095e-07
6.494249731e-07
6.46019251e-07
6.375757213e-07
6.234156202e-07
6.030111768e-07
5.102874986e-07
5.066125098e-07
4.98055401e-07
4.847726646e-07
4.670784949e-07
3.841820005e-07
3.812718368e-07
3.746644215e-07
3.645755982e-07
3.513209429e-07
2.843401082e-07
2.822630736e-07
2.774984351e-07
2.702399116e-07
2.607658875e-07
2.053331003e-07
2.039070354e-07
2.006285351e-07
1.956381347e-07
1.891425173e-07
1.45094464e-07
1.441504877e-07
1.419743264e-07
1.386589824e-07
1.343451606e-07
1.006091264e-07
1.000025592e-07
9.859934139e-08
9.645751369e-08
9.366797935e-08
6.850667061e-08
6.812682139e-08
6.724433562e-08
6.589361714e-08
6.413122809e-08
4.570062787e-08
4.546870879e-08
4.492676439e-08
4.409424486e-08
4.300546554e-08
2.972903716e-08
2.959139091e-08
2.926726818e-08
2.87670805e-08
2.811121477e-08
1.876347088e-08
1.868451897e-08
1.8496702e-08
1.820526197e-08
1.782206174e-08
1.144663241e-08
1.140309736e-08
1.129821627e-08
1.113440539e-08
1.091839217e-08
6.735497482e-09
6.712520401e-09
6.656273761e-09
6.567749081e-09
6.450656047e-09
3.81874909e-09
3.807167841e-09
3.778259084e-09
3.732349716e-09
3.671421652e-09
2.083895562e-09
2.078344515e-09
2.064137275e-09
2.041330005e-09
2.010950279e-09
1.092804128e-09
1.090288431e-09
1.083638125e-09
1.072819498e-09
1.058348265e-09
5.495220345e-10
5.48456063e-10
5.455099737e-10
5.406351585e-10
5.3408184e-10
2.643342421e-10
2.639186895e-10
2.626944723e-10
2.606226043e-10
2.578201011e-10
1.213488465e-10
1.212042478e-10
1.207329729e-10
1.199098628e-10
1.187874994e-10
5.305964521e-11
5.30173763e-11
5.285239981e-11
5.255040663e-11
5.213400168e-11
2.206300446e-11
2.205456015e-11
2.200376549e-11
2.190327602e-11
2.17623789e-11
8.714830288e-12
8.715254339e-12
8.702531535e-12
8.673190693e-12
8.630866586e-12
3.267692738e-12
3.269324847e-12
3.267425499e-12
3.26047775e-12
3.249837716e-12
1.162647386e-12
1.163772271e-12
1.164160134e-12
1.163192662e-12
1.161351368e-12
3.924880661e-13
3.930585667e-13
3.935623324e-13
3.937641626e-13
3.938268852e-13
1.257192955e-13
1.259651416e-13
1.262502174e-13
1.264905601e-13
1.267385957e-13
3.818954259e-14
3.828410226e-14
3.84094708e-14
3.853757749e-14
3.868450111e-14
1.065444313e-14
1.068193947e-14
1.072435071e-14
1.077293474e-14
1.08318322e-14
2.911392972e-15
2.921415854e-15
2.936576214e-15
2.954400447e-15
2.976151397e-15
7.560204687e-16
7.590848853e-16
7.639085877e-16
7.697912737e-16
7.770791508e-16
1.865191982e-16
1.87387503e-16
1.887990529e-16
1.905677134e-16
1.927809301e-16
4.370585916e-17
4.393622115e-17
4.432021582e-17
4.481109513e-17
4.54298712e-17
9.716851453e-18
9.774287993e-18
9.871942815e-18
9.998731175e-18
1.015948052e-17
2.043680459e-18
2.057150572e-18
2.080425573e-18
2.111021862e-18
2.150009943e-18
4.030324564e-19
4.059963666e-19
4.111840904e-19
4.180732373e-19
4.268973295e-19
7.208136776e-20
7.270711915e-20
7.382227595e-20
7.532516595e-20
7.727062493e-20
1.139931811e-20
1.153526866e-20
1.178560469e-20
1.21287739e-20
1.256933313e-20
1.617770707e-21
1.642263945e-21
1.688000898e-21
1.751192265e-21
1.83222637e-21
2.032720063e-22
2.067584951e-22
2.131805086e-22
2.218516202e-22
2.325969511e-22
1.760852551e-23
1.783603467e-23
1.811883328e-23
1.829413143e-23
1.815982868e-23
0
0
0
0
0
0
0
0
0
0
0
0
0
0
0
0
0
0
0
0
0
0
0
0
0
0
0
0
0
0
0
0
0
0
0
4.840252018e-09
1.198872138e-07
1.677423371e-07
2.414852287e-07
3.916660984e-07
5.454736667e-07
6.469500313e-07
6.925535044e-07
7.443863088e-07
8.242598826e-07
9.21881376e-07
1.014363409e-06
1.100764085e-06
1.186059825e-06
1.277349423e-06
1.37348535e-06
1.468644289e-06
1.548641717e-06
1.543091507e-06
1.401107755e-06
1.173824758e-06
9.413992404e-07
7.463349255e-07
5.865625636e-07
4.536415707e-07
3.413894733e-07
2.537919181e-07
1.844150485e-07
1.312335835e-07
9.16710364e-08
6.287887117e-08
4.223867977e-08
2.765491119e-08
1.755979845e-08
1.077365945e-08
6.374261662e-09
3.632967737e-09
1.992562234e-09
1.050052929e-09
5.305914157e-10
2.564761433e-10
1.183299839e-10
5.200685463e-11
2.174131717e-11
8.635734325e-12
3.25684234e-12
1.165768841e-12
3.959952777e-13
1.276585115e-13
3.903467631e-14
1.094504073e-14
3.013455589e-15
7.883898474e-16
1.959786581e-16
4.62777315e-17
1.037089698e-17
2.199676435e-18
4.378729908e-19
7.962379545e-20
1.306063884e-20
1.919319552e-21
2.439912998e-22
1.789220215e-23
0
0
0
0
0
0
0
1.132457376e-08
7.259282893e-09
1.227061371e-09
3.450911703e-09
5.159875334e-10
3.696614656e-07
2.027848075e-06
1.168605866e-07
1.024376087e-08
3.033694931e-09
3.886607444e-07
9.418662698e-07
1.109725628e-07
7.224323173e-09
2.093363298e-09
5.249067646e-07
1.449479599e-06
4.697203535e-06
3.545145705e-07
2.879484997e-08
8.440237873e-07
2.502758856e-06
7.743049993e-06
7.800206792e-07
5.686866386e-08
1.082596444e-06
2.622634113e-06
5.672426651e-06
7.509435664e-07
7.104320502e-08
1.155668984e-06
2.239676739e-06
3.610578819e-06
5.787635936e-07
6.919053307e-08
1.120035576e-06
1.811999286e-06
2.470722561e-06
2.223609315e-06
2.822797234e-07
1.147119507e-06
1.894827813e-06
3.217420429e-06
7.086096099e-06
1.0267835e-06
1.241804555e-06
2.107960521e-06
3.662809382e-06
8.190229085e-06
1.35168478e-06
1.358481315e-06
2.268614348e-06
3.774460139e-06
7.541053754e-06
1.391740615e-06
1.448211239e-06
2.29066983e-06
3.502554978e-06
5.862124498e-06
1.53597998e-06
1.521912699e-06
2.301321178e-06
3.369885553e-06
5.539411601e-06
5.569358545e-06
1.595680261e-06
2.340799541e-06
3.367058705e-06
5.458244584e-06
8.177364251e-06
1.679297857e-06
2.410333567e-06
3.428440041e-06
5.454683886e-06
9.004764278e-06
1.76696601e-06
2.476755828e-06
3.44736156e-06
5.265636805e-06
8.559517155e-06
1.845595334e-06
2.510426184e-06
3.385869417e-06
4.950512021e-06
7.638489624e-06
1.902377684e-06
2.528699179e-06
3.380193747e-06
4.965811325e-06
7.699417134e-06
1.838978891e-06
2.36294711e-06
3.148551841e-06
4.797705778e-06
7.14205548e-06
1.576064362e-06
1.808313778e-06
2.050927652e-06
2.448349831e-06
2.574268998e-06
1.237208657e-06
1.260007396e-06
1.203422708e-06
1.077901052e-06
8.527001227e-07
9.445085605e-07
8.945396e-07
7.91916898e-07
6.513858669e-07
4.938423296e-07
7.288104571e-07
6.699106667e-07
5.849159207e-07
4.863537453e-07
3.868764327e-07
5.663556157e-07
5.170938043e-07
4.544330643e-07
3.855323796e-07
3.172295305e-07
4.371813379e-07
4.001389906e-07
3.548030003e-07
3.057244261e-07
2.568504094e-07
3.294169148e-07
3.030020203e-07
2.710032087e-07
2.363904327e-07
2.016741068e-07
2.456477214e-07
2.273062653e-07
2.048974507e-07
1.804869149e-07
1.557923806e-07
1.790927804e-07
1.667182651e-07
1.513654854e-07
1.344712778e-07
1.172208808e-07
1.278630654e-07
1.197252013e-07
1.094423041e-07
9.799449593e-08
8.618844969e-08
8.959289731e-08
8.436285389e-08
7.762087367e-08
7.001840476e-08
6.209302278e-08
6.163391635e-08
5.834616732e-08
5.401255269e-08
4.905655637e-08
4.38297339e-08
4.152045525e-08
3.950296243e-08
3.677358229e-08
3.360344258e-08
3.021922392e-08
2.7261695e-08
2.605941018e-08
2.438108543e-08
2.23981954e-08
2.025500265e-08
1.73594189e-08
1.666824332e-08
1.56660922e-08
1.445970207e-08
1.313927795e-08
1.068111637e-08
1.030009529e-08
9.721932966e-09
9.01153935e-09
8.223929363e-09
6.337406505e-09
6.136829573e-09
5.815559452e-09
5.411917777e-09
4.958439086e-09
3.622052622e-09
3.521564758e-09
3.349880633e-09
3.128898421e-09
2.877220821e-09
1.992076303e-09
1.944390089e-09
1.85627005e-09
1.739816005e-09
1.605303486e-09
1.052718281e-09
1.031462725e-09
9.881153353e-10
9.291357356e-10
8.600031991e-10
5.334515068e-10
5.246795298e-10
5.043122706e-10
4.756754942e-10
4.415850824e-10
2.586185184e-10
2.553504829e-10
2.462489404e-10
2.329604529e-10
2.168760265e-10
1.196851117e-10
1.186410632e-10
1.147913552e-10
1.089172285e-10
1.016770762e-10
5.277122817e-11
5.252448037e-11
5.099101737e-11
4.852491148e-11
4.542382339e-11
2.213456904e-11
2.212388865e-11
2.155175412e-11
2.057103232e-11
1.930991783e-11
8.822380622e-12
8.856404064e-12
8.657730391e-12
8.289097882e-12
7.802992958e-12
3.339113778e-12
3.366939416e-12
3.30327072e-12
3.172548916e-12
2.99517408e-12
1.199597385e-12
1.215116723e-12
1.196532077e-12
1.152873461e-12
1.091661148e-12
4.090121601e-13
4.162333507e-13
4.114076349e-13
3.976980083e-13
3.777326545e-13
1.32357449e-13
1.353321764e-13
1.342745189e-13
1.302346441e-13
1.24083259e-13
4.062727962e-14
4.173911269e-14
4.157293156e-14
4.045896175e-14
3.867037303e-14
1.142810826e-14
1.179190745e-14
1.178722518e-14
1.150767084e-14
1.103076464e-14
3.160377345e-15
3.277421894e-15
3.289078675e-15
3.222222676e-15
3.098967131e-15
8.302575349e-16
8.653752771e-16
8.719733104e-16
8.572935411e-16
8.272789268e-16
2.072433167e-16
2.171128835e-16
2.196654764e-16
2.167478385e-16
2.098720783e-16
4.914439099e-17
5.175094554e-17
5.25764854e-17
5.206740252e-17
5.058902618e-17
1.106125673e-17
1.170964365e-17
1.194656757e-17
1.187457406e-17
1.157731229e-17
2.357030415e-18
2.509043326e-18
2.570880256e-18
2.564920438e-18
2.509383398e-18
4.71724901e-19
5.05294703e-19
5.202039618e-19
5.211014467e-19
5.117644909e-19
8.656109618e-20
9.372163656e-20
9.728201007e-20
9.827670845e-20
9.707609094e-20
1.442710394e-20
1.588057673e-20
1.666258266e-20
1.692321029e-20
1.678326835e-20
2.152916258e-21
2.405234154e-21
2.541128123e-21
2.577912442e-21
2.528094893e-21
2.755794625e-22
3.052463142e-22
3.11756434e-22
2.943119037e-22
2.436369619e-22
1.825463172e-23
3.452118982e-24
0
0
0
0
0
0
0
0
0
0
0
0
0
0
0
0
0
0
0
0
0
0
0
0
0
0
0
0
0
0
0
0
0
0
0
0
0
0
6.572085703e-11
4.077105531e-12
2.636485726e-13
3.662144848e-14
9.025171656e-15
2.804239553e-15
9.159247196e-16
2.968924174e-16
9.339766481e-17
2.803701966e-17
7.79645827e-18
1.83817496e-18
2.439084038e-19
0
0
0
0
0
0
0
0
0
0
0
0
0
0
0
0
0
0
0
0
0
0
0
0
0
0
0
0
0
0
0
0
0
0
0
0
0
0
0
0
0
0
0
0
0
0
0
5.491285591e-10
4.296905608e-11
2.336741758e-12
2.086084843e-13
3.749056247e-14
1.033286852e-14
3.467768675e-15
1.24265426e-15
4.450060859e-16
1.536887079e-16
4.994008062e-17
1.48386823e-17
3.802159893e-18
7.009506926e-19
9.367908189e-21
0
0
0
0
0
0
0
0
0
0
0
0
0
0
0
0
0
0
0
0
0
0
0
0
0
0
0
0
0
0
0
0
0
0
0
0
0
0
0
0
0
0
0
0
0
7.678218128e-10
1.015591391e-10
6.697080907e-12
6.145536781e-13
1.094967237e-13
3.175416029e-14
1.189285671e-14
4.886644137e-15
2.002082237e-15
7.830350952e-16
2.850221179e-16
9.486856669e-17
2.838897742e-17
7.39261343e-18
1.509660977e-18
1.319033009e-19
0
0
0
0
0
0
0
0
0
0
0
0
0
0
0
0
0
0
0
0
0
0
0
0
0
0
0
0
0
0
0
0
0
0
0
0
0
0
0
0
0
0
0
0
8.401803698e-09
1.641531765e-09
1.328602284e-10
7.652706138e-12
8.932100502e-13
2.07876249e-13
7.185077792e-14
2.886693481e-14
1.190978996e-14
4.773390379e-15
1.798967009e-15
6.2427927e-16
1.966956785e-16
5.553080897e-17
1.373574634e-17
2.775923724e-18
3.21514714e-19
0
0
0
0
0
0
0
0
0
0
0
0
0
0
0
0
0
0
0
0
0
0
0
0
0
0
0
0
0
0
0
0
0
0
0
0
0
0
0
0
0
0
0
1.65245229e-08
5.144658081e-09
9.450188791e-10
8.136162589e-11
7.740942905e-12
1.434184838e-12
4.266475798e-13
1.571434486e-13
6.16555179e-14
2.403038976e-14
8.955721883e-15
3.116274614e-15
9.985833943e-16
2.898809677e-16
7.498171341e-17
1.687347872e-17
3.041055725e-18
3.1945233e-19
0
0
0
0
0
0
0
0
0
0
0
0
0
0
0
0
0
0
0
0
0
0
0
0
0
0
0
0
0
0
0
0
0
0
0
0
0
0
0
0
0
0
1.38928272e-08
6.61408464e-09
2.251995855e-09
4.295642151e-10
4.319560093e-11
6.104253357e-12
1.509470738e-12
5.085680229e-13
1.916806212e-13
7.325271519e-14
2.705865364e-14
9.409713318e-15
3.026718613e-15
8.878918899e-16
2.344440962e-16
5.507186299e-17
1.100525872e-17
1.726925462e-18
9.671620255e-20
0
0
0
0
0
0
0
0
0
0
0
0
0
0
0
0
0
0
0
0
0
0
0
0
0
0
0
0
0
0
0
0
0
0
0
0
0
0
0
0
0
8.849009222e-09
4.941537261e-09
2.750861375e-09
1.06796636e-09
2.023949427e-10
2.365592815e-11
4.478685235e-12
1.326011943e-12
4.770162133e-13
1.791985847e-13
6.582617825e-14
2.288080132e-14
7.384459466e-15
2.185704934e-15
5.877332076e-16
1.419826705e-16
2.984986028e-17
5.369029507e-18
6.495297579e-19
7.388441375e-22
0
0
0
0
0
0
0
0
0
0
0
0
0
0
0
0
0
0
0
0
0
0
0
0
0
0
0
0
0
0
0
0
0
0
0
0
0
0
0
0
2.154211017e-08
6.157196301e-09
3.742772953e-09
2.008822343e-09
7.337274648e-10
1.098034886e-10
1.500957634e-11
3.533591063e-12
1.140496703e-12
4.092887711e-13
1.469485889e-13
5.037166376e-14
1.610540461e-14
4.741770071e-15
1.275812806e-15
3.113706674e-16
6.727396019e-17
1.299870661e-17
1.992483573e-18
1.255274781e-19
0
0
0
0
0
0
0
0
0
0
0
0
0
0
0
0
0
0
0
0
0
0
0
0
0
0
0
0
0
0
0
0
0
0
0
0
0
0
0
0
9.211893317e-08
1.492234605e-08
7.203098508e-09
4.150828755e-09
2.173184973e-09
5.685285765e-10
6.578400958e-11
1.081136474e-11
2.869480241e-12
9.327746584e-13
3.166212259e-13
1.045426147e-13
3.252733197e-14
9.390138997e-15
2.496630246e-15
6.081401534e-16
1.329673176e-16
2.676451593e-17
4.609958773e-18
5.232451164e-19
0
0
0
0
0
0
0
0
0
0
0
0
0
0
0
0
0
0
0
0
0
0
0
0
0
0
0
0
0
0
0
0
0
0
0
0
0
0
0
0
1.643029965e-07
1.964528528e-08
8.567247219e-09
5.64618569e-09
3.670470687e-09
1.68910902e-09
2.766269156e-10
3.269791867e-11
6.838087086e-12
1.966653383e-12
6.241912246e-13
1.972521487e-13
5.946028157e-14
1.678546708e-14
4.406352107e-15
1.071859553e-15
2.371974357e-16
4.941924214e-17
9.195857097e-18
1.333781629e-18
5.472006234e-20
0
0
0
0
0
0
0
0
0
0
0
0
0
0
0
0
0
0
0
0
0
0
0
0
0
0
0
0
0
0
0
0
0
0
0
0
0
0
0
2.033955158e-07
1.970952377e-08
7.232033258e-09
5.630515576e-09
4.510410406e-09
2.934896316e-09
8.007295404e-10
9.61544721e-11
1.563758302e-11
3.84775488e-12
1.11704254e-12
3.335968427e-13
9.67849439e-14
2.668329073e-14
6.94239035e-15
1.700005674e-15
3.845352063e-16
8.345666063e-17
1.660685509e-17
2.791267955e-18
2.647730611e-19
0
0
0
0
0
0
0
0
0
0
0
0
0
0
0
0
0
0
0
0
0
0
0
0
0
0
0
0
0
0
0
0
0
0
0
0
0
0
0
1.958864459e-07
2.184880843e-08
5.629988844e-09
4.86299719e-09
4.810200818e-09
3.940443118e-09
1.764565133e-09
2.686009183e-10
3.808654619e-11
7.594108853e-12
1.915689979e-12
5.236171811e-13
1.434571783e-13
3.829465405e-14
9.877988817e-15
2.452216565e-15
5.730542368e-16
1.306210633e-16
2.771377972e-17
5.176148723e-18
6.885369009e-19
4.744077435e-21
0
0
0
0
0
0
0
0
0
0
0
0
0
0
0
0
0
0
0
0
0
0
0
0
0
0
0
0
0
0
0
0
0
0
0
0
0
0
7.935842839e-07
9.665894062e-08
1.308727348e-08
6.524179781e-09
6.209781156e-09
5.53053581e-09
3.238028089e-09
7.157368348e-10
9.133221199e-11
1.507560532e-11
3.15023738e-12
7.59029906e-13
1.925247237e-13
4.947781021e-14
1.270848128e-14
3.228859718e-15
7.872925256e-16
1.894136945e-16
4.274363198e-17
8.659166566e-18
1.384517435e-18
7.742137901e-20
0
0
0
0
0
0
0
0
0
0
0
0
0
0
0
0
0
0
0
0
0
0
0
0
0
0
0
0
0
0
0
0
0
0
0
0
0
0
1.307291022e-06
1.841108668e-07
2.383530261e-08
7.731998757e-09
7.673702682e-09
7.569564126e-09
5.29643198e-09
1.701502826e-09
2.191956029e-10
3.126895277e-11
5.280476726e-12
1.078956861e-12
2.466611669e-13
6.025711377e-14
1.538611345e-14
4.008777232e-15
1.019112587e-15
2.570320573e-16
6.09570978e-17
1.311497947e-17
2.347119471e-18
2.311540189e-19
0
0
0
0
0
0
0
0
0
0
0
0
0
0
0
0
0
0
0
0
0
0
0
0
0
0
0
0
0
0
0
0
0
0
0
0
0
0
1.592237775e-06
2.574766699e-07
3.511722197e-08
8.439151829e-09
8.868213005e-09
9.792685508e-09
7.559646748e-09
3.345952984e-09
5.222538004e-10
6.881899295e-11
8.962580452e-12
1.460066181e-12
2.925993748e-13
6.793001215e-14
1.741362896e-14
4.678895573e-15
1.237285358e-15
3.239714204e-16
7.972492025e-17
1.790672402e-17
3.442958217e-18
4.334859953e-19
5.913068496e-23
0
0
0
0
0
0
0
0
0
0
0
0
0
0
0
0
0
0
0
0
0
0
0
0
0
0
0
0
0
0
0
0
0
0
0
0
0
1.671177324e-06
2.92619538e-07
4.45524225e-08
8.914767263e-09
1.037209695e-08
1.252494682e-08
9.947103901e-09
5.223719658e-09
1.130894336e-09
1.556505937e-10
1.59595401e-11
1.945391576e-12
3.294883e-13
7.310264719e-14
1.903214887e-14
5.27007723e-15
1.435992284e-15
3.851578035e-16
9.710461554e-17
2.244960294e-17
4.502401427e-18
6.415231831e-19
6.568534073e-21
0
0
0
0
0
0
0
0
0
0
0
0
0
0
0
0
0
0
0
0
0
0
0
0
0
0
0
0
0
0
0
0
0
0
0
0
0
1.688656704e-06
2.9983601e-07
5.127278273e-08
1.051759617e-08
1.458965277e-08
1.657261834e-08
1.239885631e-08
6.725174018e-09
2.122830901e-09
3.329989547e-10
2.968397645e-11
2.735163125e-12
3.935933711e-13
8.405737221e-14
2.192813424e-14
6.10587702e-15
1.678343868e-15
4.535784276e-16
1.151162573e-16
2.680629249e-17
5.472265993e-18
8.318068504e-19
2.172072261e-20
0
0
0
0
0
0
0
0
0
0
0
0
0
0
0
0
0
0
0
0
0
0
0
0
0
0
0
0
0
0
0
0
0
0
0
0
0
1.680089102e-06
3.053551551e-07
4.821480068e-08
2.255124308e-08
2.434803371e-08
2.155413916e-08
1.47014105e-08
7.91180811e-09
3.081320628e-09
6.838060843e-10
6.923341804e-11
5.513145444e-12
6.572803826e-13
1.224344991e-13
2.950828633e-14
7.849635491e-15
2.095777884e-15
5.54211266e-16
1.385694148e-16
3.198312035e-17
6.540073746e-18
1.031126604e-18
4.487069698e-20
0
0
0
0
0
0
0
0
0
0
0
0
0
0
0
0
0
0
0
0
0
0
0
0
0
0
0
0
0
0
0
0
0
0
0
0
0
1.4865643e-06
2.752612254e-07
4.003841996e-08
3.469343143e-08
3.501293553e-08
2.659898386e-08
1.677305922e-08
8.976052513e-09
3.955961321e-09
1.276753306e-09
2.357819585e-10
2.310650297e-11
2.065941694e-12
2.648212139e-13
4.969586422e-14
1.162160339e-14
2.901177247e-15
7.368518402e-16
1.794394732e-16
4.070143302e-17
8.276497346e-18
1.343862595e-18
8.398136703e-20
0
0
0
0
0
0
0
0
0
0
0
0
0
0
0
0
0
0
0
0
0
0
0
0
0
0
0
0
0
0
0
0
0
0
0
0
0
6.166504977e-07
1.158219645e-07
8.243843501e-08
6.478433401e-08
4.721870358e-08
3.140338804e-08
1.896197913e-08
1.029445731e-08
4.938642017e-09
2.015005232e-09
6.132454896e-10
1.080557369e-10
1.049520836e-11
9.408679055e-13
1.181863576e-13
2.126225598e-14
4.656976012e-15
1.106229539e-15
2.595298167e-16
5.758890575e-17
1.163027475e-17
1.950763321e-18
1.693764634e-19
0
0
0
0
0
0
0
0
0
0
0
0
0
0
0
0
0
0
0
0
0
0
0
0
0
0
0
0
0
0
0
0
0
0
0
0
0
3.789332393e-07
1.957072634e-07
1.269223707e-07
8.485605337e-08
5.610205456e-08
3.563994275e-08
2.132253019e-08
1.185648206e-08
6.052057089e-09
2.781097247e-09
1.10155417e-09
3.279691604e-10
5.661101258e-11
5.337173672e-12
4.602428965e-13
5.493860513e-14
9.226535936e-15
1.919851324e-15
4.228001171e-16
9.098251192e-17
1.82066442e-17
3.149584837e-18
3.520897562e-19
0
0
0
0
0
0
0
0
0
0
0
0
0
0
0
0
0
0
0
0
0
0
0
0
0
0
0
0
0
0
0
0
0
0
0
0
0
3.251402654e-07
2.130206675e-07
1.415500112e-07
9.401841343e-08
6.14511579e-08
3.886895114e-08
2.350450137e-08
1.34629585e-08
7.236927379e-09
3.602346525e-09
1.622240717e-09
6.307107608e-10
1.841251823e-10
3.079626571e-11
2.747093988e-12
2.228913404e-13
2.47618749e-14
3.941101337e-15
7.633532761e-16
1.55158705e-16
3.042793742e-17
5.367765855e-18
7.059176089e-19
7.338781472e-21
0
0
0
0
0
0
0
0
0
0
0
0
0
0
0
0
0
0
0
0
0
0
0
0
0
0
0
0
0
0
0
0
0
0
0
0
2.867735963e-07
2.025254614e-07
1.40343341e-07
9.540730634e-08
6.328900231e-08
4.065932888e-08
2.513206716e-08
1.485831734e-08
8.346569585e-09
4.411899445e-09
2.15949469e-09
9.525862775e-10
3.606262302e-10
1.016354932e-10
1.608052348e-11
1.319089531e-12
9.835317627e-14
1.038188994e-14
1.550760864e-15
2.797986952e-16
5.240246035e-17
9.25182641e-18
1.339437351e-18
6.680285953e-20
0
0
0
0
0
0
0
0
0
0
0
0
0
0
0
0
0
0
0
0
0
0
0
0
0
0
0
0
0
0
0
0
0
0
0
0
2.472000657e-07
1.824293316e-07
1.307477323e-07
9.117556564e-08
6.181730046e-08
4.060112103e-08
2.573509267e-08
1.568518616e-08
9.148248059e-09
5.068248519e-09
2.635802838e-09
1.262800382e-09
5.407946932e-10
1.967061215e-10
5.252468816e-11
7.678129925e-12
5.629285691e-13
3.929091981e-14
3.931629487e-15
5.550924937e-16
9.357300095e-17
1.606462322e-17
2.445318347e-18
2.076282569e-19
0
0
0
0
0
0
0
0
0
0
0
0
0
0
0
0
0
0
0
0
0
0
0
0
0
0
0
0
0
0
0
0
0
0
0
0
2.055966765e-07
1.5585577e-07
1.145183987e-07
8.213974538e-08
5.696923853e-08
3.829574911e-08
2.490586083e-08
1.562443052e-08
9.420277378e-09
5.426119882e-09
2.958319207e-09
1.505382117e-09
7.00070878e-10
2.879056659e-10
9.910022195e-11
2.450314822e-11
3.219114486e-12
2.133823214e-13
1.391092318e-14
1.330264977e-15
1.780054458e-16
2.787787735e-17
4.248457193e-18
4.526204715e-19
2.213945089e-22
0
0
0
0
0
0
0
0
0
0
0
0
0
0
0
0
0
0
0
0
0
0
0
0
0
0
0
0
0
0
0
0
0
0
0
1.647945021e-07
1.283294072e-07
9.703301937e-08
7.122085546e-08
5.066026809e-08
3.486434913e-08
2.319758355e-08
1.493785066e-08
9.270450007e-09
5.516736606e-09
3.123977084e-09
1.664888628e-09
8.220083559e-10
3.673917776e-10
1.433871536e-10
4.598944147e-11
1.027633948e-11
1.175144737e-12
6.933860453e-14
4.273588736e-15
3.929367856e-16
4.966843906e-17
7.042035944e-18
8.175809441e-19
1.437856986e-20
0
0
0
0
0
0
0
0
0
0
0
0
0
0
0
0
0
0
0
0
0
0
0
0
0
0
0
0
0
0
0
0
0
0
0
1.292598308e-07
1.025173674e-07
7.894023055e-08
5.905731014e-08
4.292665873e-08
3.027843662e-08
2.067376631e-08
1.364275252e-08
8.678782269e-09
5.308137544e-09
3.100550598e-09
1.713897407e-09
8.855069274e-10
4.202712607e-10
1.786122664e-10
6.532113812e-11
1.919632227e-11
3.76298653e-12
3.584118244e-13
1.859045155e-14
1.089477616e-15
9.63800103e-17
1.132025649e-17
1.284517992e-18
5.319780126e-20
0
0
0
0
0
0
0
0
0
0
0
0
0
0
0
0
0
0
0
0
0
0
0
0
0
0
0
0
0
0
0
0
0
0
0
9.84919844e-08
7.929971423e-08
6.205683546e-08
4.72370684e-08
3.497885548e-08
2.518260469e-08
1.759821896e-08
1.189965389e-08
7.760783459e-09
4.858972365e-09
2.911051875e-09
1.656426659e-09
8.862134778e-10
4.397400301e-10
1.984966675e-10
7.920969043e-11
2.672819935e-11
7.046431935e-12
1.171588344e-12
8.975778305e-14
4.136049947e-15
2.335164141e-16
1.972153335e-17
1.943424828e-18
1.065508961e-19
0
0
0
0
0
0
0
0
0
0
0
0
0
0
0
0
0
0
0
0
0
0
0
0
0
0
0
0
0
0
0
0
0
0
0
7.32371543e-08
5.975982578e-08
4.744971879e-08
3.668455421e-08
2.761692438e-08
2.023180562e-08
1.440258661e-08
9.938412241e-09
6.621430223e-09
4.241488704e-09
2.598032358e-09
1.512393717e-09
8.312415661e-10
4.265318424e-10
2.012169391e-10
8.539341778e-11
3.157045658e-11
9.678838169e-12
2.246435714e-12
3.10493281e-13
1.925718073e-14
8.23043044e-16
4.56000443e-17
3.426799622e-18
2.094820096e-19
0
0
0
0
0
0
0
0
0
0
0
0
0
0
0
0
0
0
0
0
0
0
0
0
0
0
0
0
0
0
0
0
0
0
0
5.330434295e-08
4.40182885e-08
3.54006757e-08
2.773956888e-08
2.11762843e-08
1.573783181e-08
1.137030674e-08
7.968696594e-09
5.399903067e-09
3.521807834e-09
2.199895916e-09
1.307987382e-09
7.339992708e-10
3.864320785e-10
1.884715462e-10
8.369484482e-11
3.302485796e-11
1.117186805e-11
3.06861181e-12
6.140167612e-13
6.919315124e-14
3.525937018e-15
1.413354592e-16
7.324521937e-18
4.140212601e-19
0
0
0
0
0
0
0
0
0
0
0
0
0
0
0
0
0
0
0
0
0
0
0
0
0
0
0
0
0
0
0
0
0
0
0
3.796807652e-08
3.167973222e-08
2.575425617e-08
2.040551643e-08
1.575332022e-08
1.184060666e-08
8.652683171e-09
6.135125319e-09
4.209259652e-09
2.783908975e-09
1.76573055e-09
1.067979298e-09
6.116140766e-10
3.282820779e-10
1.64147641e-10
7.538091628e-11
3.11842e-11
1.131090778e-11
3.457180466e-12
8.384490375e-13
1.41259295e-13
1.254126018e-14
5.195001504e-16
1.865324555e-17
8.264184382e-19
6.232740221e-22
0
0
0
0
0
0
0
0
0
0
0
0
0
0
0
0
0
0
0
0
0
0
0
0
0
0
0
0
0
0
0
0
0
0
2.638111503e-08
2.220210382e-08
1.820805536e-08
1.45536465e-08
1.133387342e-08
8.592626109e-09
6.333314967e-09
4.529733152e-09
3.135890204e-09
2.094588309e-09
1.344109952e-09
8.239487338e-10
4.793655193e-10
2.624695041e-10
1.337960922e-10
6.304999071e-11
2.703773091e-11
1.032932472e-11
3.412159429e-12
9.324671532e-13
1.966511596e-13
2.732479203e-14
1.888688893e-15
6.27136863e-17
2.032821335e-18
1.27795867e-20
0
0
0
0
0
0
0
0
0
0
0
0
0
0
0
0
0
0
0
0
0
0
0
0
0
0
0
0
0
0
0
0
0
0
1.779784825e-08
1.508431477e-08
1.245753103e-08
1.00259043e-08
7.860376977e-09
5.998470465e-09
4.450028199e-09
3.203636924e-09
2.232927495e-09
1.502335655e-09
9.720607309e-10
6.019278149e-10
3.545085622e-10
1.97134086e-10
1.024855028e-10
4.931042638e-11
2.175577416e-11
8.651522735e-12
3.02951427e-12
9.036285324e-13
2.182572018e-13
3.938690749e-14
4.355719966e-15
2.142516539e-16
5.958450259e-18
7.488310315e-20
0
0
0
0
0
0
0
0
0
0
0
0
0
0
0
0
0
0
0
0
0
0
0
0
0
0
0
0
0
0
0
0
0
0
1.160955145e-08
9.897212973e-09
8.220372832e-09
6.652325886e-09
5.243239414e-09
4.021912396e-09
2.998813838e-09
2.169836052e-09
1.520279466e-09
1.028587603e-09
6.696997741e-10
4.178035648e-10
2.483684454e-10
1.397215724e-10
7.377945865e-11
3.61635447e-11
1.63242177e-11
6.701817687e-12
2.455728687e-12
7.825883922e-13
2.088209361e-13
4.390395405e-14
6.632783164e-15
5.42073661e-16
1.95348745e-17
3.189554618e-19
0
0
0
0
0
0
0
0
0
0
0
0
0
0
0
0
0
0
0
0
0
0
0
0
0
0
0
0
0
0
0
0
0
0
7.302129838e-09
6.256638144e-09
5.221762964e-09
4.245167917e-09
3.360606709e-09
2.588574284e-09
1.937871805e-09
1.407751845e-09
9.903182242e-10
6.728977099e-10
4.402043499e-10
2.761688498e-10
1.653524286e-10
9.390687977e-11
5.020598038e-11
2.503148027e-11
1.151618443e-11
4.852688128e-12
1.843983267e-12
6.189058033e-13
1.780477646e-13
4.191242389e-14
7.60478361e-15
9.004229298e-16
5.707225921e-17
1.381224131e-18
0
0
0
0
0
0
0
0
0
0
0
0
0
0
0
0
0
0
0
0
0
0
0
0
0
0
0
0
0
0
0
0
0
0
4.422299136e-09
3.806281095e-09
3.190218889e-09
2.60388722e-09
2.068963222e-09
1.599184337e-09
1.201108193e-09
8.752908867e-10
6.176845616e-10
4.210862664e-10
2.764817902e-10
1.742076663e-10
1.048673985e-10
5.997989433e-11
3.237855152e-11
1.63649469e-11
7.662053931e-12
3.298430099e-12
1.290922552e-12
4.515264344e-13
1.377009488e-13
3.520140999e-14
6.967883456e-15
9.877903336e-16
8.920718427e-17
3.53845307e-18
3.688833214e-21
0
0
0
0
0
0
0
0
0
0
0
0
0
0
0
0
0
0
0
0
0
0
0
0
0
0
0
0
0
0
0
0
0
2.576641176e-09
2.226814584e-09
1.873465727e-09
1.53445281e-09
1.223086152e-09
9.480951056e-10
7.139686451e-10
5.215756838e-10
3.689511302e-10
2.521397009e-10
1.660051087e-10
1.049402724e-10
6.343643377e-11
3.649200033e-11
1.985691936e-11
1.014599615e-11
4.824088271e-12
2.114465232e-12
8.480578444e-13
3.06773479e-13
9.808778067e-14
2.670659177e-14
5.749188019e-15
9.197871711e-16
1.037790024e-16
6.310004504e-18
7.166576053e-20
0
0
0
0
0
0
0
0
0
0
0
0
0
0
0
0
0
0
0
0
0
0
0
0
0
0
0
0
0
0
0
0
0
1.443021172e-09
1.251734132e-09
1.056653181e-09
8.680594709e-10
6.937711102e-10
5.390605142e-10
4.067917919e-10
2.977333606e-10
2.109834854e-10
1.444448168e-10
9.529178396e-11
6.038773613e-11
3.662329922e-11
2.116125409e-11
1.158667184e-11
5.973139466e-12
2.87693628e-12
1.281654959e-12
5.246785842e-13
1.95159978e-13
6.483294554e-14
1.865213112e-14
4.23160934e-15
5.304906401e-16
5.59284025e-17
3.426098568e-18
4.199300267e-20
0
0
0
0
0
0
0
0
0
0
0
0
0
0
0
0
0
0
0
0
0
0
0
0
0
0
0
0
0
0
0
0
0
7.757473213e-10
6.751710276e-10
5.716416518e-10
4.708373886e-10
3.771497717e-10
2.936080832e-10
2.219270863e-10