/*--------------------------------*- C++ -*----------------------------------*\
  =========                 |
  \\      /  F ield         | OpenFOAM: The Open Source CFD Toolbox
   \\    /   O peration     | Website:  https://openfoam.org
    \\  /    A nd           | Version:  10
     \\/     M anipulation  |
\*---------------------------------------------------------------------------*/
FoamFile
{
    format      ascii;
    class       volScalarField;
    location    "0.02498436188";
    object      HCO_0;
}
// * * * * * * * * * * * * * * * * * * * * * * * * * * * * * * * * * * * * * //

dimensions      [0 0 0 0 0 0 0];

internalField   nonuniform List<scalar> 
5170
(
0
0
0
0
0
0
0
0
0
0
0
0
0
0
0
0
0
0
0
0
0
0
0
0
0
0
0
0
0
0
0
0
0
0
0
0
0
0
0
0
0
0
0
0
0
0
0
0
0
0
0
0
0
0
0
0
0
0
0
0
0
0
0
0
0
0
0
0
0
0
0
0
0
0
0
0
0
0
0
0
0
0
0
0
0
0
0
0
0
0
0
0
0
0
0
0
0
0
0
4.629448009e-13
1.849514549e-10
1.827033001e-10
1.90113082e-10
1.840436879e-10
1.809666029e-10
7.64671931e-11
8.525082419e-11
8.929441472e-11
8.479167724e-11
6.880048124e-11
3.159894891e-11
3.836789054e-11
4.225270297e-11
3.670414355e-11
2.574656959e-11
1.510870128e-11
2.000351536e-11
2.174758002e-11
1.779976446e-11
1.240596445e-11
8.217033913e-12
1.155599267e-11
1.214910608e-11
9.732265465e-12
6.959482191e-12
5.782459217e-12
7.311869177e-12
7.960842447e-12
5.982949749e-12
4.998106985e-12
4.693027719e-12
5.854683675e-12
6.014232348e-12
3.868985617e-12
1.147086984e-11
6.798253549e-12
3.63504621e-12
2.44602096e-12
6.956120799e-12
0
0
7.404479783e-12
4.135576048e-12
1.351530158e-11
0
0
2.788976635e-10
0
0
0
6.917821951e-12
1.533541863e-10
0
1.243260936e-12
3.5265363e-13
1.461139691e-12
0
0
0
3.744559392e-12
1.115206053e-12
0
0
1.778318149e-12
3.620673523e-11
9.001186548e-12
6.410577639e-13
1.659006633e-12
1.540893125e-11
7.37590172e-11
3.594611519e-11
7.602760367e-12
7.82904835e-12
3.790687214e-11
5.381567138e-11
3.740434746e-11
3.162040004e-11
3.116036806e-11
4.506795195e-11
5.926215415e-11
3.080333591e-11
6.048226811e-11
6.048909043e-11
4.508775234e-11
9.246653689e-11
4.067000232e-11
4.686205517e-11
4.888622522e-11
5.312002497e-11
6.35238623e-11
9.292169149e-11
4.947271004e-11
3.945659335e-11
8.320120229e-11
5.756125117e-11
1.076570274e-09
2.185374523e-09
3.333700785e-10
6.913495013e-11
6.296241965e-12
0
0
1.128238037e-12
2.391563191e-11
6.65103066e-10
0
3.262456779e-14
5.997991093e-12
7.381324462e-11
1.944359273e-09
0
2.565384549e-13
7.050466435e-12
1.097149353e-10
1.912646416e-09
0
7.491847701e-13
1.109960135e-11
1.465844785e-10
1.951727002e-09
0
9.854258407e-13
8.607134826e-12
1.909069466e-10
2.099965163e-09
0
1.950497692e-12
1.618262384e-11
2.312303663e-10
2.120174318e-09
1.617555351e-13
3.840336557e-12
2.452539889e-11
2.678802706e-10
2.113280341e-09
2.752912821e-13
3.981479986e-12
3.320258303e-11
2.916988942e-10
2.006895127e-09
0
0
4.34828006e-11
3.264814251e-10
2.06833581e-09
5.730586628e-13
5.296836572e-12
5.381472617e-11
3.427190295e-10
1.92161767e-09
2.401527566e-12
1.180753686e-11
6.754335535e-11
3.858714555e-10
2.037468841e-09
3.422455644e-12
1.56756061e-11
8.244448549e-11
4.255596207e-10
2.067402795e-09
4.200266302e-12
2.15359132e-11
9.858157175e-11
4.631559202e-10
2.077356902e-09
9.583963914e-12
2.920578285e-11
1.203089079e-10
5.342264438e-10
2.293183271e-09
1.610202835e-11
3.988557294e-11
1.492791532e-10
6.195795478e-10
2.48648618e-09
2.386822644e-11
5.237460862e-11
1.783431482e-10
6.795444517e-10
2.50436644e-09
3.630922755e-11
7.555306684e-11
2.434248262e-10
8.060967331e-10
2.765069604e-09
6.050578304e-11
1.17506181e-10
3.481480737e-10
9.918063724e-10
3.161554986e-09
8.989110162e-11
1.735995861e-10
5.564972328e-10
1.648218972e-09
5.284929231e-09
2.213813311e-10
3.840253498e-10
9.589023157e-10
2.665322144e-09
7.643918197e-09
4.27184945e-10
6.355496714e-10
1.264006405e-09
2.802211535e-09
6.389106784e-09
6.938689094e-10
8.661043157e-10
1.315382691e-09
2.210631224e-09
3.87109195e-09
6.93748969e-10
7.784921764e-10
9.790325738e-10
1.322406668e-09
1.853787084e-09
4.141947365e-10
4.398586137e-10
4.946584766e-10
5.709133554e-10
6.755919389e-10
1.676404517e-10
1.714826574e-10
1.785527814e-10
1.892655499e-10
2.000044127e-10
5.424220224e-11
5.461835147e-11
5.506883233e-11
5.496390159e-11
5.433708683e-11
1.795614688e-11
1.788982853e-11
1.762347553e-11
1.710941971e-11
1.637239785e-11
6.041409177e-12
5.985738223e-12
5.833902396e-12
5.593538608e-12
5.268300593e-12
2.054895609e-12
2.032752939e-12
1.977572072e-12
1.888158861e-12
1.770799616e-12
7.138922376e-13
7.077753063e-13
6.945431002e-13
6.627986568e-13
6.184265127e-13
2.235885838e-13
2.226560534e-13
2.208472949e-13
2.234670251e-13
2.185544486e-13
9.648118943e-14
9.563878912e-14
9.372216609e-14
9.093458864e-14
8.726310757e-14
4.375100574e-14
4.345526969e-14
4.262899515e-14
4.169619026e-14
4.055200125e-14
2.589684778e-14
2.586223551e-14
2.577793332e-14
2.567264802e-14
2.557715668e-14
2.121299575e-14
2.127204746e-14
2.13949324e-14
2.162606907e-14
2.195959682e-14
2.116153591e-14
2.132369955e-14
2.168681021e-14
2.224739856e-14
2.300229289e-14
2.225105761e-14
2.246625368e-14
2.294091742e-14
2.366210035e-14
2.461653847e-14
2.090176691e-14
2.116507362e-14
2.174235906e-14
2.261338041e-14
2.377342925e-14
1.732746844e-14
1.758026549e-14
1.812907618e-14
1.895366275e-14
2.00788573e-14
1.151196919e-14
1.171501104e-14
1.213587353e-14
1.27410499e-14
1.344885076e-14
5.112227699e-15
5.186843005e-15
5.344865109e-15
5.58030296e-15
5.893497724e-15
4.242827237e-16
4.505533255e-16
5.10581345e-16
6.224116588e-16
8.190396851e-16
7.070508781e-16
9.918030273e-16
1.051877023e-15
1.098033804e-15
1.209747944e-15
6.676972665e-16
6.483275322e-16
5.996892259e-16
5.276223033e-16
4.356862654e-16
2.826534435e-17
4.062207091e-17
3.985626421e-17
2.65185067e-17
0
5.97973216e-16
5.86729038e-16
5.442978872e-16
4.441833148e-16
2.883379943e-16
0
0
0
0
0
1.090416709e-15
1.057514449e-15
9.638843909e-16
8.824612854e-16
7.910281659e-16
6.974466892e-16
6.83653606e-16
6.509443295e-16
5.993727646e-16
5.294515577e-16
2.849453544e-16
2.800040722e-16
2.669443426e-16
2.433786617e-16
2.083447767e-16
0
0
0
0
0
2.342853481e-16
3.116332615e-16
5.767362668e-16
6.449686106e-16
6.724840524e-16
1.32000345e-15
1.311358214e-15
1.293842103e-15
1.26256271e-15
1.22081252e-15
2.034176085e-15
2.016024386e-15
1.973392607e-15
1.90136878e-15
1.790262015e-15
2.413406608e-15
2.370819952e-15
2.282073458e-15
2.157112777e-15
2.002581041e-15
3.025418217e-15
2.974752758e-15
2.86857092e-15
2.716581144e-15
2.529342546e-15
3.825303997e-15
3.759266187e-15
3.619730514e-15
3.418774333e-15
3.167223446e-15
5.269862186e-15
5.186632654e-15
5.010187578e-15
4.754571286e-15
4.431593609e-15
8.436087397e-15
8.318314101e-15
8.067202416e-15
7.698568104e-15
7.222661725e-15
1.291253767e-14
1.272717252e-14
1.233341282e-14
1.176360261e-14
1.105591032e-14
1.721707796e-14
1.707993012e-14
1.679342707e-14
1.638411528e-14
1.587337212e-14
2.201581327e-14
2.192901191e-14
2.175587962e-14
2.152366087e-14
2.126089988e-14
2.273557248e-14
2.265401275e-14
2.249174189e-14
2.226799241e-14
2.193549263e-14
2.292173412e-14
2.280677692e-14
2.256210618e-14
2.220189107e-14
2.172058219e-14
2.781731361e-14
2.75750713e-14
2.705854025e-14
2.629857325e-14
2.530085369e-14
4.059247561e-14
4.022149257e-14
3.943172466e-14
3.826847766e-14
3.673734624e-14
5.464524539e-14
5.414256034e-14
5.311124937e-14
5.167874819e-14
4.992715069e-14
7.010892693e-14
6.942302136e-14
6.795436584e-14
6.578992892e-14
6.299856012e-14
7.267408178e-14
7.204373146e-14
7.071196516e-14
6.877730904e-14
6.636297252e-14
8.554873203e-14
8.520112727e-14
8.45071442e-14
8.35759543e-14
8.254717398e-14
4.359241073e-09
1.860528392e-08
1.285728159e-08
1.167905811e-08
1.161557931e-08
1.059408684e-08
9.585298273e-09
8.232998825e-09
8.142414582e-09
6.781476317e-09
6.972115431e-09
6.584832294e-09
6.21953696e-09
6.702706562e-09
6.828675074e-09
6.488565473e-09
6.565176602e-09
8.282137187e-09
1.301765373e-08
1.708909251e-08
1.17438694e-08
5.835287419e-09
2.377177108e-09
7.662676019e-10
2.091644924e-10
5.406844563e-11
1.588610386e-11
5.05194701e-12
1.685004009e-12
5.860557447e-13
2.108058805e-13
8.46925472e-14
3.992207369e-14
2.557249057e-14
2.224844261e-14
2.359972062e-14
2.537547572e-14
2.47171749e-14
2.095621463e-14
1.400190091e-14
6.173360482e-15
9.647546135e-16
1.176968143e-15
3.539297533e-16
2.584473859e-17
2.020844137e-16
0
7.367310386e-16
4.841305583e-16
1.946393948e-16
0
6.8975336e-16
1.187304424e-15
1.678326285e-15
1.87763376e-15
2.376504125e-15
2.967531832e-15
4.172316614e-15
6.828644252e-15
1.050406712e-14
1.546703362e-14
2.105714547e-14
2.08592423e-14
2.12842138e-14
2.444921029e-14
3.541802149e-14
4.851451361e-14
6.070766226e-14
6.442525453e-14
8.176770765e-14
1.115181614e-08
3.409953843e-08
1.570725317e-09
1.573024824e-09
8.953531615e-11
9.421215396e-08
1.456612323e-06
9.443096001e-08
2.938454483e-09
8.756813939e-10
5.243888393e-08
4.590748068e-07
1.030802438e-07
7.878690163e-09
4.882899652e-09
4.815516422e-08
4.840703194e-07
3.58371644e-06
2.771152254e-07
2.966825543e-08
4.645985961e-08
4.569937489e-07
3.555492175e-06
3.837718556e-07
2.809107406e-08
3.98352686e-08
3.536232771e-07
2.403332912e-06
3.568642801e-07
3.678659652e-08
3.387438571e-08
2.74112944e-07
1.560140293e-06
3.118793731e-07
4.482390977e-08
2.72106999e-08
1.977117699e-07
1.072392405e-06
1.623814504e-06
2.183252398e-07
2.65028711e-08
1.79801912e-07
9.776011006e-07
3.148747654e-06
4.93590874e-07
2.014548462e-08
1.383018814e-07
7.76098429e-07
2.803268061e-06
5.144131081e-07
2.064375319e-08
1.227310143e-07
6.350704056e-07
2.287931159e-06
4.805268995e-07
1.853752373e-08
1.097625022e-07
5.482276487e-07
1.876781312e-06
7.595285917e-07
1.683517032e-08
1.025699114e-07
4.752535402e-07
1.681108569e-06
2.424759476e-06
1.796722519e-08
9.942091366e-08
4.173950513e-07
1.46644348e-06
2.429458807e-06
1.715931098e-08
8.708386182e-08
3.68999198e-07
1.263807237e-06
2.201182235e-06
1.605479486e-08
7.568304845e-08
3.33875508e-07
1.097908611e-06
1.980773618e-06
1.545940398e-08
6.871481493e-08
3.061598705e-07
9.917765994e-07
1.858276889e-06
1.95623121e-08
8.676347466e-08
3.394433516e-07
1.060990206e-06
1.930021519e-06
3.012514292e-08
1.3049781e-07
4.97922085e-07
1.535893846e-06
2.8764893e-06
3.839308936e-08
1.592305369e-07
6.247410832e-07
2.376419937e-06
8.780280426e-06
2.256341989e-08
6.709228932e-08
1.81940586e-07
4.481275064e-07
9.19337455e-07
9.46391893e-09
2.02142205e-08
3.907042804e-08
6.651872893e-08
9.164827073e-08
3.311254307e-09
5.278366099e-09
7.543843931e-09
9.414292721e-09
9.673526592e-09
9.364980258e-10
1.174254959e-09
1.325016973e-09
1.329680117e-09
1.14182561e-09
2.334332549e-10
2.475565619e-10
2.388486944e-10
2.078259169e-10
1.596974131e-10
5.575039413e-11
5.345401236e-11
4.673211896e-11
3.722365477e-11
2.689286137e-11
1.571723997e-11
1.428906897e-11
1.188576789e-11
9.207016604e-12
6.609203593e-12
4.894624676e-12
4.335010997e-12
3.586104742e-12
2.735461394e-12
2.010927905e-12
1.583619014e-12
1.438033745e-12
1.205379291e-12
9.100247426e-13
6.085104241e-13
5.522686795e-13
4.487272394e-13
4.044922135e-13
3.29115344e-13
2.460248086e-13
2.024208928e-13
1.773896849e-13
1.456603913e-13
1.258671341e-13
1.017752919e-13
8.23269411e-14
7.433263249e-14
6.381739767e-14
5.508133657e-14
4.70890037e-14
3.924473263e-14
3.705748528e-14
3.484609742e-14
3.220260671e-14
2.973146975e-14
2.567739143e-14
2.531232125e-14
2.477202304e-14
2.488340383e-14
2.575079636e-14
2.263459434e-14
2.353050495e-14
2.477399546e-14
2.640873634e-14
2.881041036e-14
2.43649905e-14
2.597623659e-14
2.815224649e-14
3.091140493e-14
3.481573842e-14
2.643286737e-14
2.864732062e-14
3.137219652e-14
3.480560895e-14
3.885503356e-14
2.611403121e-14
2.876337258e-14
3.187734442e-14
3.490137402e-14
3.766749865e-14
2.23109843e-14
2.460604577e-14
2.685776778e-14
2.904156232e-14
3.094544149e-14
1.492584188e-14
1.630875846e-14
1.763475223e-14
1.873610982e-14
2.025183459e-14
6.708303036e-15
7.615288193e-15
8.501686714e-15
1.032751817e-14
1.10019574e-14
1.405982634e-15
2.883973982e-15
3.729234106e-15
3.761679746e-15
3.507266961e-15
1.097245637e-15
1.09259946e-15
9.916859454e-16
7.702610613e-16
5.434501434e-16
2.240710106e-16
6.270727199e-17
0
2.083476061e-16
2.143486351e-16
1.332434709e-16
3.460265955e-16
3.499866855e-16
0
0
1.687424961e-17
0
0
0
2.379685976e-16
0
0
2.654574666e-16
3.755081791e-16
3.469777415e-16
6.801020245e-16
5.867331317e-16
4.902647604e-16
3.497941713e-16
1.655087831e-16
4.500650572e-16
3.558603315e-16
2.470586987e-16
1.183171237e-16
0
1.934287904e-16
0
0
0
1.537843451e-16
0
9.29769949e-17
1.409401755e-16
6.353105949e-16
7.281305722e-16
7.285938308e-16
7.780499012e-16
8.056709983e-16
8.01697131e-16
7.476161424e-16
1.149174215e-15
1.05575381e-15
9.206797317e-16
7.177576926e-16
3.950803507e-16
1.493248794e-15
1.030052392e-15
7.133929933e-16
4.989043621e-16
3.77051302e-16
1.665144513e-15
1.331406087e-15
1.043010955e-15
7.964746179e-16
6.355168757e-16
2.111752706e-15
1.722941128e-15
1.333878786e-15
9.930155846e-16
7.283700732e-16
2.647023566e-15
2.138997236e-15
1.655206102e-15
1.226161904e-15
8.769716591e-16
3.752246382e-15
3.07261561e-15
2.401234315e-15
1.765438258e-15
1.186028816e-15
6.174710534e-15
5.06821314e-15
3.896149051e-15
2.688463849e-15
1.549071432e-15
9.622103197e-15
8.285587123e-15
6.983253256e-15
5.904495294e-15
5.047384264e-15
1.47691424e-14
1.381561807e-14
1.300150827e-14
1.269228319e-14
1.28617314e-14
2.06064723e-14
2.008440256e-14
1.974667535e-14
1.999573675e-14
2.160577005e-14
1.90529321e-14
2.290832576e-14
2.158791188e-14
2.070290181e-14
2.0339085e-14
2.059916878e-14
1.947438941e-14
1.825664924e-14
1.714340529e-14
1.627841399e-14
2.309319326e-14
2.081587502e-14
1.852146035e-14
1.627134805e-14
1.411794281e-14
3.323392347e-14
2.943578762e-14
2.532860396e-14
2.105804857e-14
1.710410877e-14
4.620875468e-14
4.197894208e-14
3.70002143e-14
3.077147282e-14
2.452999015e-14
5.688668513e-14
5.007249859e-14
4.164951826e-14
3.420706534e-14
2.701813472e-14
6.077833112e-14
5.496305653e-14
4.884556766e-14
4.310939819e-14
3.855629863e-14
7.989311551e-14
7.73321157e-14
7.551210218e-14
7.529161659e-14
7.406462678e-14
3.107296099e-13
2.085186181e-14
0
0
0
0
0
0
0
0
0
0
0
0
0
0
0
0
0
0
0
0
0
0
0
0
0
0
0
0
0
0
0
0
0
0
0
0
0
0
0
0
0
0
0
0
0
0
0
0
0
0
0
0
0
0
0
0
0
0
5.125948153e-12
1.510245555e-12
0
0
0
0
0
0
0
0
0
0
0
0
0
0
0
0
0
0
0
0
0
0
0
0
0
0
0
0
0
0
0
0
0
0
0
0
0
0
0
0
0
0
0
0
0
0
0
0
0
0
0
0
0
0
0
0
0
0
3.739250681e-11
2.182041403e-16
0
0
0
0
0
0
0
0
0
0
0
0
0
0
0
0
0
0
0
0
0
0
0
0
0
0
0
0
0
0
0
0
0
0
0
0
0
0
0
0
0
0
0
0
0
0
0
0
0
0
0
0
0
0
0
0
0
0
5.881707379e-10
4.199849685e-12
5.374454842e-13
0
0
0
0
0
0
0
0
0
0
0
0
0
0
0
0
0
0
0
0
0
0
0
0
0
0
0
0
0
0
0
0
0
0
0
0
0
0
0
0
0
0
0
0
0
0
0
0
0
0
0
0
0
0
0
0
0
2.716322355e-09
4.258822668e-11
3.797228122e-13
2.157542471e-13
0
0
0
0
0
0
0
0
0
0
0
0
0
0
0
0
0
0
0
0
0
0
0
0
0
0
0
0
0
0
0
0
0
0
0
0
0
0
0
0
0
0
0
0
0
0
0
0
0
0
0
0
0
0
0
0
1.299421952e-08
4.826235627e-10
9.66611057e-12
2.872442014e-12
1.329105016e-13
0
0
0
0
0
0
0
0
0
0
0
0
0
0
0
0
0
0
0
0
0
0
0
0
0
0
0
0
0
0
0
0
0
0
0
0
0
0
0
0
0
0
0
0
0
0
0
0
0
0
0
0
0
0
0
1.779150016e-08
2.107965359e-09
8.52515004e-11
2.653983339e-12
9.741293467e-13
3.047034402e-16
0
0
0
0
0
0
0
0
0
0
0
0
0
0
0
0
0
0
0
0
0
0
0
0
0
0
0
0
0
0
0
0
0
0
0
0
0
0
0
0
0
0
0
0
0
0
0
0
0
0
0
0
0
0
1.727001708e-08
6.53798501e-09
5.334474647e-10
2.328555365e-11
2.564804582e-12
6.031940036e-13
0
0
0
0
0
0
0
0
0
0
0
0
0
0
0
0
0
0
0
0
0
0
0
0
0
0
0
0
0
0
0
0
0
0
0
0
0
0
0
0
0
0
0
0
0
0
0
0
0
0
0
0
0
0
4.779494845e-08
1.369650016e-08
2.393716746e-09
1.739776312e-10
7.664804843e-12
3.21504474e-12
2.312998714e-13
0
0
0
0
0
0
0
0
0
0
0
0
0
0
0
0
0
0
0
0
0
0
0
0
0
0
0
0
0
0
0
0
0
0
0
0
0
0
0
0
0
0
0
0
0
0
0
0
0
0
0
0
0
5.640822825e-08
1.346153708e-08
7.637307126e-09
8.118883678e-10
5.271394379e-11
2.007352602e-12
8.480421665e-13
6.409148638e-15
0
0
0
0
0
0
0
0
0
0
0
0
0
0
0
0
0
0
0
0
0
0
0
0
0
0
0
0
0
0
0
0
0
0
0
0
0
0
0
0
0
0
0
0
0
0
0
0
0
0
0
0
5.990123959e-08
5.109312087e-09
1.580297083e-08
3.160610937e-09
2.613703425e-10
1.272353659e-11
3.641433727e-12
2.94713116e-13
0
0
0
0
0
0
0
0
0
0
0
0
0
0
0
0
0
0
0
0
0
0
0
0
0
0
0
0
0
0
0
0
0
0
0
0
0
0
0
0
0
0
0
0
0
0
0
0
0
0
0
0
1.220984726e-07
1.521649228e-08
1.870045541e-08
1.086347233e-08
1.058522054e-09
5.960370869e-11
1.798694876e-12
8.357747682e-13
2.988939012e-14
0
0
0
0
0
0
0
0
0
0
0
0
0
0
0
0
0
0
0
0
0
0
0
0
0
0
0
0
0
0
0
0
0
0
0
0
0
0
0
0
0
0
0
0
0
0
0
0
0
0
0
3.703043047e-07
4.296732569e-08
1.521819921e-08
3.049822434e-08
3.590819371e-09
2.24920436e-10
8.176541888e-12
2.086914965e-12
1.643598512e-13
0
0
0
0
0
0
0
0
0
0
0
0
0
0
0
0
0
0
0
0
0
0
0
0
0
0
0
0
0
0
0
0
0
0
0
0
0
0
0
0
0
0
0
0
0
0
0
0
0
0
0
4.327693567e-07
5.728520589e-08
1.457023003e-08
5.611591493e-08
9.909663478e-09
7.124186834e-10
3.111364186e-11
6.167660906e-12
4.373756353e-13
2.994757558e-15
0
0
0
0
0
0
0
0
0
0
0
0
0
0
0
0
0
0
0
0
0
0
0
0
0
0
0
0
0
0
0
0
0
0
0
0
0
0
0
0
0
0
0
0
0
0
0
0
0
0
4.419711622e-07
6.584423703e-08
1.678499449e-08
7.164422335e-08
2.144710577e-08
1.665320301e-09
8.32370633e-11
3.559312232e-12
9.166739258e-13
3.108769153e-14
0
0
0
0
0
0
0
0
0
0
0
0
0
0
0
0
0
0
0
0
0
0
0
0
0
0
0
0
0
0
0
0
0
0
0
0
0
0
0
0
0
0
0
0
0
0
0
0
0
0
4.334665665e-07
8.206285703e-08
2.260365385e-08
8.407840451e-08
3.303474003e-08
2.625569251e-09
1.456828829e-10
6.415217059e-12
1.027002924e-12
4.356494602e-14
0
0
0
0
0
0
0
0
0
0
0
0
0
0
0
0
0
0
0
0
0
0
0
0
0
0
0
0
0
0
0
0
0
0
0
0
0
0
0
0
0
0
0
0
0
0
0
0
0
0
4.92720562e-07
1.06203265e-07
3.70187067e-08
1.568151238e-07
3.261667011e-08
2.547196455e-09
1.516782277e-10
8.641039763e-12
1.317712558e-12
4.648462497e-14
0
0
0
0
0
0
0
0
0
0
0
0
0
0
0
0
0
0
0
0
0
0
0
0
0
0
0
0
0
0
0
0
0
0
0
0
0
0
0
0
0
0
0
0
0
0
0
0
0
0
4.853557198e-07
1.098294356e-07
5.665927866e-08
2.984971791e-07
2.51896366e-08
1.585512251e-09
9.122037296e-11
4.699912133e-12
6.998972312e-13
1.99641934e-14
0
0
0
0
0
0
0
0
0
0
0
0
0
0
0
0
0
0
0
0
0
0
0
0
0
0
0
0
0
0
0
0
0
0
0
0
0
0
0
0
0
0
0
0
0
0
0
0
0
0
6.516358483e-07
1.771522397e-07
2.184732518e-07
7.102257089e-08
6.959190647e-09
5.088839882e-10
3.225031364e-11
4.048727685e-12
4.020316478e-13
3.46937667e-13
2.13457277e-15
0
0
0
0
0
0
0
0
0
0
0
0
0
0
0
0
0
0
0
0
0
0
0
0
0
0
0
0
0
0
0
0
0
0
0
0
0
0
0
0
0
0
0
0
0
0
0
0
0
1.685461282e-06
2.677354277e-06
3.214415524e-07
2.756397713e-08
2.110252602e-09
1.505377461e-10
1.055514761e-11
1.511457952e-12
3.619656203e-13
3.437904679e-13
1.929808193e-13
0
0
0
0
0
0
0
0
0
0
0
0
0
0
0
0
0
0
0
0
0
0
0
0
0
0
0
0
0
0
0
0
0
0
0
0
0
0
0
0
0
0
0
0
0
0
0
0
0
5.284121867e-07
2.524049385e-07
3.933471585e-08
4.438700015e-09
4.28035779e-10
3.837426571e-11
3.776927625e-12
5.191325906e-13
2.124790128e-13
1.991504799e-13
3.83466605e-13
1.889787123e-13
0
0
0
0
0
0
0
0
0
0
0
0
0
0
0
0
0
0
0
0
0
0
0
0
0
0
0
0
0
0
0
0
0
0
0
0
0
0
0
0
0
0
0
0
0
0
0
0
5.98284115e-08
2.234192588e-08
4.451205583e-09
6.574032983e-10
8.224272227e-11
9.605502918e-12
8.216481298e-13
1.505849841e-13
0
3.121920367e-14
2.527435888e-14
3.597959976e-13
1.666290233e-13
0
0
0
0
0
0
0
0
0
0
0
0
0
0
0
0
0
0
0
0
0
0
0
0
0
0
0
0
0
0
0
0
0
0
0
0
0
0
0
0
0
0
0
0
0
0
0
6.145353523e-09
2.306039217e-09
5.569159488e-10
1.037640993e-10
1.705051084e-11
3.212144809e-12
6.42371452e-13
1.043347183e-13
3.023753702e-14
0
8.135658442e-15
1.465120578e-14
3.37261291e-13
1.38567768e-13
0
0
0
0
0
0
0
0
0
0
0
0
0
0
0
0
0
0
0
0
0
0
0
0
0
0
0
0
0
0
0
0
0
0
0
0
0
0
0
0
0
0
0
0
0
0
7.057799986e-10
2.807930341e-10
8.047842209e-11
1.903011629e-11
4.104360012e-12
4.54848833e-13
1.209436637e-13
7.134470347e-14
5.325640411e-14
3.097825165e-14
8.619047961e-15
1.279124715e-14
1.415634935e-14
3.619623571e-13
1.47674869e-13
0
0
0
0
0
0
0
0
0
0
0
0
0
0
0
0
0
0
0
0
0
0
0
0
0
0
0
0
0
0
0
0
0
0
0
0
0
0
0
0
0
0
0
0
0
9.665584889e-11
4.160435745e-11
1.343892696e-11
4.163588601e-12
1.228772478e-12
3.884604407e-13
1.515840095e-13
5.421400472e-14
2.748364658e-14
2.439656112e-14
0
3.172689844e-15
2.060140353e-14
1.160955174e-14
3.387232292e-13
8.391059191e-14
0
0
0
0
0
0
0
0
0
0
0
0
0
0
0
0
0
0
0
0
0
0
0
0
0
0
0
0
0
0
0
0
0
0
0
0
0
0
0
0
0
0
0
0
1.635569692e-11
7.933717369e-12
3.389470957e-12
1.462211855e-12
5.173112301e-13
1.815208841e-13
7.669273977e-14
2.722935254e-14
1.117317243e-14
2.665099552e-14
1.615615263e-14
0
9.97634207e-15
4.955504536e-14
2.347422218e-13
3.381946554e-13
4.298304258e-14
0
0
0
0
0
0
0
0
0
0
0
0
0
0
0
0
0
0
0
0
0
0
0
0
0
0
0
0
0
0
0
0
0
0
0
0
0
0
0
0
0
0
0
4.138635954e-12
2.225958585e-12
1.087585748e-12
3.460263564e-13
2.003483949e-13
5.009111502e-14
3.669442629e-14
1.137217783e-14
9.872027217e-15
2.62618691e-14
3.566885364e-14
2.215866292e-14
0
8.838416816e-15
7.056276449e-15
4.533206496e-13
5.413115144e-13
1.142890617e-13
0
0
0
0
0
0
0
0
0
0
0
0
0
0
0
0
0
0
0
0
0
0
0
0
0
0
0
0
0
0
0
0
0
0
0
0
0
0
0
0
0
0
1.379914008e-12
7.959150566e-13
3.922339284e-13
2.098411068e-13
1.02636201e-13
4.956156071e-14
3.350889468e-14
2.375361311e-14
1.484559285e-14
3.14585963e-14
3.650664771e-14
3.422385554e-14
0
0
1.254879488e-14
2.304090891e-14
5.181643527e-13
6.077967069e-13
1.223266811e-13
0
0
0
0
0
0
0
0
0
0
0
0
0
0
0
0
0
0
0
0
0
0
0
0
0
0
0
0
0
0
0
0
0
0
0
0
0
0
0
0
0
4.467692466e-13
2.558974003e-13
1.610824207e-13
8.634147249e-14
4.491723972e-14
3.301769104e-14
2.717540342e-14
2.291593939e-14
6.151288961e-15
0
2.858791228e-14
3.599158797e-14
2.654691768e-14
0
1.203627329e-14
6.676005004e-14
1.816731346e-13
4.670677459e-13
1.443023767e-13
0
0
0
0
0
0
0
0
0
0
0
0
0
0
0
0
0
0
0
0
0
0
0
0
0
0
0
0
0
0
0
0
0
0
0
0
0
0
0
0
0
1.768958929e-13
1.168715365e-13
7.477497984e-14
3.701576465e-14
3.225268362e-14
2.689290213e-14
2.471404843e-14
2.424483583e-14
1.793208781e-14
0
2.68194234e-14
4.117901898e-14
5.165644613e-14
3.458941223e-14
0
9.218804966e-15
5.45640793e-15
4.618547264e-13
5.853511193e-13
1.819083787e-13
2.519874392e-17
0
0
0
0
0
0
0
0
0
0
0
0
0
0
0
0
0
0
0
0
0
0
0
0
0
0
0
0
0
0
0
0
0
0
0
0
0
0
0
7.836376046e-14
5.611763195e-14
3.770167291e-14
2.847179269e-14
2.634898809e-14
2.478572194e-14
2.609836087e-14
2.824940168e-14
3.446577428e-14
3.62963787e-14
3.965151334e-14
4.412893722e-14
3.935367488e-14
3.010991912e-14
0
0
1.241601501e-14
1.127788031e-14
5.662747625e-13
6.895260213e-13
2.043046799e-13
0
0
0
0
0
0
0
0
0
0
0
0
0
0
0
0
0
0
0
0
0
0
0
0
0
0
0
0
0
0
0
0
0
0
0
0
0
0
0
3.807276165e-14
3.285582529e-14
2.693905289e-14
2.767144463e-14
2.676387282e-14
2.828805628e-14
3.350452686e-14
3.324539021e-14
3.493291107e-14
4.028273036e-14
3.869077447e-14
3.565884897e-14
3.298433589e-14
3.527266016e-14
0
0
3.517270456e-15
1.125590982e-13
5.485987444e-13
7.053778361e-13
2.975048435e-13
2.886599238e-14
0
0
0
0
0
0
0
0
0
0
0
0
0
0
0
0
0
0
0
0
0
0
0
0
0
0
0
0
0
0
0
0
0
0
0
0
0
0
2.808308537e-14
2.686416359e-14
2.639666976e-14
2.729188923e-14
3.008340955e-14
3.25987796e-14
3.925758084e-14
4.129326271e-14
3.983653621e-14
4.330485675e-14
3.963976083e-14
3.651227581e-14
3.134608176e-14
2.810427297e-14
2.013482455e-14
0
0
1.528360184e-14
1.846249178e-14
5.746657544e-13
7.102695833e-13
2.572937999e-13
1.949272919e-15
0
0
0
0
0
0
0
0
0
0
0
0
0
0
0
0
0
0
0
0
0
0
0
0
0
0
0
0
0
0
0
0
0
0
0
0
0
2.69489171e-14
2.881703309e-14
3.120632411e-14
3.449789788e-14
3.924967239e-14
4.324861092e-14
4.468166695e-14
5.034022611e-14
4.735489196e-14
4.518687235e-14
4.521780537e-14
4.463687862e-14
4.145794677e-14
4.117520784e-14
4.642864143e-14
0
2.838799057e-14
6.862538371e-14
2.167298654e-13
6.324051183e-13
8.768931682e-13
8.214808094e-13
2.550179071e-13
7.670806832e-16
0
0
0
0
0
0
0
0
0
0
0
0
0
0
0
0
0
0
0
0
0
0
0
0
0
0
0
0
0
0
0
0
0
0
0
0
3.217825751e-14
3.686844422e-14
3.976301932e-14
4.31601835e-14
4.850391635e-14
5.294328981e-14
5.585467716e-14
6.002112091e-14
5.646574573e-14
5.361324072e-14
5.427055138e-14
5.236295475e-14
5.062136848e-14
4.902433107e-14
4.769400645e-14
4.524992293e-14
5.645571385e-15
1.634862052e-14
2.390615705e-14
1.056887669e-14
6.663650903e-13
8.53341606e-13
3.924310255e-13
7.231730646e-14
0
0
0
0
0
0
0
0
0
0
0
0
0
0
0
0
0
0
0
0
0
0
0
0
0
0
0
0
0
0
0
0
0
0
0
0
4.039719454e-14
4.52848222e-14
4.852766934e-14
5.011573202e-14
5.324523591e-14
5.747805934e-14
6.121490356e-14
6.60282954e-14
6.297156397e-14
5.838073493e-14
5.63782643e-14
5.467532446e-14
5.256339395e-14
4.799490402e-14
4.943701213e-14
5.598218181e-14
0
1.981977841e-14
2.565646291e-14
1.050442224e-13
4.456186206e-13
8.005604356e-13
8.425125149e-13
3.201336389e-13
1.709214285e-14
0
0
0
0
0
0
0
0
0
0
0
0
0
0
0
0
0
0
0
0
0
0
0
0
0
0
0
0
0
0
0
0
0
0
0
4.354386906e-14
4.794880238e-14
5.024363215e-14
5.135833843e-14
5.398013077e-14
5.651057541e-14
5.929854863e-14
6.385218149e-14
6.079148174e-14
5.535392215e-14
5.271348275e-14
4.974091001e-14
4.632380764e-14
4.072933316e-14
4.008108222e-14
4.015471326e-14
0
8.479184225e-15
9.750034092e-15
3.191929214e-14
2.241649036e-14
7.159197143e-13
9.406587927e-13
5.332536112e-13
1.775993829e-13
0
0
0
0
0
0
0
0
0
0
0
0
0
0
0
0
0
0
0
0
0
0
0
0
0
0
0
0
0
0
0
0
0
0
0
4.105738144e-14
4.410385786e-14
4.501724127e-14
4.48047765e-14
4.612782322e-14
4.72743429e-14
4.901323524e-14
5.294821542e-14
4.99762807e-14
4.578715816e-14
4.560217054e-14
3.925366283e-14
3.388184234e-14
2.66766317e-14
2.391042281e-14
2.195046245e-14
3.011954491e-14
0
3.372318428e-16
1.323200854e-15
2.803597639e-14
0
7.745418601e-13
9.064076658e-13
4.122015649e-13
8.015479519e-14
0
0
0
0
0
0
0
0
0
0
0
0
0
0
0
0
0
0
0
0
0
0
0
0
0
0
0
0
0
0
0
0
0
0
3.354337383e-14
3.533199019e-14
3.553530323e-14
3.455667184e-14
3.639878792e-14
3.456178332e-14
3.43771265e-14
3.528528026e-14
3.315286064e-14
2.952778748e-14
3.054163819e-14
2.320735776e-14
1.732090659e-14
1.238957368e-14
1.021511754e-14
1.084417455e-14
2.322399302e-14
0
0
1.746256746e-15
2.384968856e-14
0
7.940077813e-13
1.15792857e-12
1.089088095e-12
3.696613803e-13
1.160097022e-14
0
0
0
0
0
0
0
0
0
0
0
0
0
0
0
0
0
0
0
0
0
0
0
0
0
0
0
0
0
0
0
0
0
2.185250518e-14
2.231738849e-14
2.192577406e-14
1.986958851e-14
2.086168011e-14
1.866470072e-14
1.820975936e-14
1.864011368e-14
1.668636677e-14
1.352565678e-14
1.546041331e-14
9.24728717e-15
4.758881079e-15
1.711709795e-15
1.020296205e-16
1.67319018e-15
6.08226535e-15
0
0
3.599756799e-16
1.382559299e-14
3.070961292e-14
1.734070938e-15
8.53614168e-13
1.030905945e-12
5.057268118e-13
1.304638369e-13
0
0
0
0
0
0
0
0
0
0
0
0
0
0
0
0
0
0
0
0
0
0
0
0
0
0
0
0
0
0
0
0
0
1.147149422e-14
1.136461794e-14
1.106912559e-14
1.258027267e-14
1.039144865e-14
7.092865016e-15
7.07973348e-15
7.074282992e-15
5.612294589e-15
3.413151124e-15
6.681772625e-15
2.360856495e-15
2.210470183e-16
0
0
0
3.383835872e-15
1.857889314e-14
2.855486412e-15
7.141481616e-16
3.199133344e-15
2.713017491e-14
2.550863802e-15
8.361495334e-13
1.196741823e-12
1.077960564e-12
4.194266325e-13
5.523817643e-14
0
0
0
0
0
0
0
0
0
0
0
0
0
0
0
0
0
0
0
0
0
0
0
0
0
0
0
0
0
0
0
0
2.749578358e-15
2.444158347e-15
8.771705496e-16
2.355826387e-15
9.748353495e-16
0
1.178795631e-15
1.644882993e-15
1.200844643e-15
0
2.524812862e-15
1.102687841e-16
0
0
0
1.024874873e-16
2.093744581e-15
1.86564715e-14
0
9.631184774e-17
7.318842165e-15
3.381652724e-14
6.981171086e-14
6.955015808e-14
8.799263874e-13
1.061963894e-12
5.565375392e-13
1.715280873e-13
2.962486716e-16
0
0
0
0
0
0
0
0
0
0
0
0
0
0
0
0
0
0
0
0
0
0
0
0
0
0
0
0
0
0
0
6.288166295e-16
0
8.149109117e-16
6.041055909e-16
0
0
2.718372841e-16
3.32801858e-16
1.193898835e-16
0
7.731745023e-16
0
0
0
0
0
3.033440829e-16
3.578056197e-15
0
0
2.415112057e-16
8.907910578e-15
3.458297502e-14
0
8.608806799e-13
1.242716656e-12
1.139613994e-12
4.843023732e-13
9.718581102e-14
0
0
0
0
0
0
0
0
0
0
0
0
0
0
0
0
0
0
0
0
0
0
0
0
0
0
0
0
0
0
0
0
8.900215078e-16
7.910758105e-16
8.830793708e-17
0
0
2.822178738e-16
2.781329422e-16
2.429408801e-17
0
5.340906056e-16
0
0
2.976153747e-16
0
0
0
2.516576435e-15
1.777949684e-14
2.164597815e-15
2.973736272e-16
3.216658464e-16
1.647861662e-14
0
5.411948614e-13
9.989175697e-13
1.129668624e-12
6.17074123e-13
2.132665247e-13
1.558719352e-15
0
0
0
0
0
0
0
0
0
0
0
0
0
0
0
0
0
0
0
0
0
0
0
0
0
0
0
0
0
0
6.845926824e-16
7.261734513e-16
3.486314211e-16
0
0
4.280431066e-16
4.588197044e-16
2.456858321e-16
0
0
1.464630759e-16
0
0
7.613277766e-16
0
0
0
5.776437102e-15
2.461736882e-14
7.115331882e-15
3.093842769e-16
1.70787469e-15
5.209788905e-15
3.30520519e-14
3.833389936e-15
8.986187147e-13
1.280821801e-12
1.170459352e-12
5.128193653e-13
1.159747213e-13
0
0
0
0
0
0
0
0
0
0
0
0
0
0
0
0
0
0
0
0
0
0
0
0
0
0
0
0
0
0
3.987501233e-16
2.364448098e-16
0
0
1.953078968e-16
9.03710752e-17
2.005219708e-16
2.889518284e-17
0
0
1.288101184e-16
0
0
6.659004257e-16
1.003810807e-15
2.874524836e-15
8.010663444e-15
1.781592294e-14
3.331875724e-14
1.642076256e-14
2.553548838e-14
2.531818652e-14
2.488393308e-14
3.59123392e-14
0
7.039250554e-13
1.130023662e-12
1.198544669e-12
6.554218336e-13
2.33367959e-13
2.497274643e-15
0
0
0
0
0
0
0
0
0
0
0
0
0
0
0
0
0
0
0
0
0
0
0
0
0
0
0
0
0
2.014619171e-16
0
0
0
5.357298031e-16
5.170746883e-16
2.961610297e-16
9.290538992e-17
7.905136985e-19
0
5.800208516e-16
2.158910015e-15
5.616866686e-15
1.171525782e-14
1.727566502e-14
2.403233028e-14
3.292064373e-14
4.274239695e-14
4.980198775e-14
3.776624209e-14
6.638530708e-14
7.222814949e-14
7.479541776e-14
8.471273948e-14
8.998376605e-14
3.100157022e-14
9.471594712e-13
1.331421692e-12
1.200277908e-12
5.181686898e-13
1.062871955e-13
0
0
0
0
0
0
0
0
0
0
0
0
0
0
0
0
0
0
0
0
0
0
0
0
0
0
0
0
0
0
0
0
4.341536499e-16
2.40983002e-16
3.693482967e-16
2.180003808e-16
9.318297811e-17
0
1.380204184e-15
5.860856762e-15
1.179559503e-14
2.04613087e-14
3.238545212e-14
4.446549683e-14
5.85142435e-14
7.699863646e-14
8.910297828e-14
1.011845214e-13
1.196019461e-13
1.190473666e-13
1.199966748e-13
1.155917715e-13
1.014865243e-13
9.190786114e-14
0
8.664281417e-13
1.305850891e-12
1.291598389e-12
6.62172172e-13
2.171658969e-13
2.132055139e-15
0
0
0
0
0
0
0
0
0
0
0
0
0
0
0
0
0
0
0
0
0
0
0
0
0
0
0
0
0
0
5.74122181e-16
5.657902018e-16
4.52517975e-16
3.868461532e-16
5.498186983e-16
9.345463057e-16
1.609550623e-15
7.669709407e-15
1.400244974e-14
2.254612151e-14
3.443917082e-14
4.987663502e-14
6.573221559e-14
8.366110202e-14
1.061372503e-13
1.236330106e-13
1.41453755e-13
1.65967803e-13
1.610657489e-13
1.619954563e-13
1.569205015e-13