/*--------------------------------*- C++ -*----------------------------------*\
  =========                 |
  \\      /  F ield         | OpenFOAM: The Open Source CFD Toolbox
   \\    /   O peration     | Website:  https://openfoam.org
    \\  /    A nd           | Version:  10
     \\/     M anipulation  |
\*---------------------------------------------------------------------------*/
FoamFile
{
    format      ascii;
    class       volScalarField;
    location    "0.02498436188";
    object      HO2_0;
}
// * * * * * * * * * * * * * * * * * * * * * * * * * * * * * * * * * * * * * //

dimensions      [0 0 0 0 0 0 0];

internalField   nonuniform List<scalar> 
5170
(
8.101093084e-09
8.086922696e-09
7.993293891e-09
7.330378033e-09
5.683056265e-10
1.624811548e-08
1.620403448e-08
1.600550139e-08
1.49906827e-08
9.235127144e-09
2.43273833e-08
2.425453928e-08
2.396531241e-08
2.275678661e-08
1.799230289e-08
3.230377747e-08
3.220563808e-08
3.18492849e-08
3.056566774e-08
2.678013879e-08
4.01751145e-08
4.005614327e-08
3.965843595e-08
3.839454609e-08
3.5571624e-08
4.794457923e-08
4.781243776e-08
4.739967065e-08
4.624164009e-08
4.436841592e-08
5.562370745e-08
5.548512414e-08
5.508276192e-08
5.41141325e-08
5.317846681e-08
6.322937606e-08
6.309381496e-08
6.272605525e-08
6.201577935e-08
6.201136812e-08
7.077487812e-08
7.064994759e-08
7.034284299e-08
6.995774524e-08
7.087604101e-08
7.827328834e-08
7.816452609e-08
7.793539927e-08
7.795004147e-08
7.978075842e-08
8.573132971e-08
8.564476055e-08
8.550969444e-08
8.599636452e-08
8.872528117e-08
9.314984493e-08
9.30928352e-08
9.308442895e-08
9.409454887e-08
9.770026798e-08
1.005311962e-07
1.005111329e-07
1.006657587e-07
1.022445968e-07
1.066964165e-07
1.078771671e-07
1.07901925e-07
1.082523262e-07
1.104450208e-07
1.157041244e-07
1.151884276e-07
1.152675914e-07
1.158450606e-07
1.186904244e-07
1.247119691e-07
1.224639689e-07
1.226083132e-07
1.234555025e-07
1.269814205e-07
1.33698071e-07
1.297048688e-07
1.299263415e-07
1.310760507e-07
1.353017909e-07
1.426694966e-07
1.36913146e-07
1.37225647e-07
1.387295733e-07
1.436621213e-07
1.515960704e-07
1.440909975e-07
1.445117117e-07
1.464271826e-07
1.520830838e-07
1.60543537e-07
1.512872775e-07
1.520173705e-07
1.552833675e-07
1.661131508e-07
1.912495262e-07
3.004587601e-06
3.00262257e-06
3.002627821e-06
3.001007206e-06
2.999257633e-06
2.345738024e-06
2.439553148e-06
2.441793241e-06
2.418784597e-06
2.278677411e-06
1.80925405e-06
1.938194118e-06
1.940043398e-06
1.888740817e-06
1.719588295e-06
1.506159428e-06
1.626044585e-06
1.630192493e-06
1.565191438e-06
1.42814278e-06
1.326824475e-06
1.429563733e-06
1.432770672e-06
1.372968375e-06
1.254551178e-06
1.232349944e-06
1.30729759e-06
1.314706666e-06
1.257637225e-06
1.169407541e-06
1.15609411e-06
1.230347026e-06
1.237061472e-06
1.193656836e-06
1.136823867e-06
1.127903562e-06
1.167142091e-06
1.173123011e-06
1.154226729e-06
1.112765912e-06
1.10988553e-06
1.1384331e-06
1.143070523e-06
1.124978428e-06
1.089984796e-06
1.094345224e-06
1.124264624e-06
1.122815818e-06
1.103091256e-06
1.081923829e-06
1.083708558e-06
1.106834468e-06
1.104151748e-06
1.086094477e-06
1.075723342e-06
1.076382516e-06
1.086647069e-06
1.086164399e-06
1.079548199e-06
1.070740675e-06
1.07054395e-06
1.079439172e-06
1.080269833e-06
1.07354118e-06
1.06641136e-06
1.065949717e-06
1.072825076e-06
1.073815496e-06
1.068594045e-06
1.0621025e-06
1.061930015e-06
1.067879224e-06
1.068647002e-06
1.064112893e-06
1.057423371e-06
1.058593019e-06
1.063781189e-06
1.064334258e-06
1.060256045e-06
1.053356044e-06
1.054768126e-06
1.059994054e-06
1.060331554e-06
1.05594628e-06
1.048853854e-06
1.051064256e-06
1.05600595e-06
1.056030322e-06
1.05131905e-06
1.043769327e-06
1.056948024e-06
1.053788421e-06
1.051782739e-06
1.046800591e-06
1.038275545e-06
2.122047983e-06
1.227491673e-06
1.078679009e-06
1.047841513e-06
1.033060552e-06
1.587621207e-07
1.645189289e-07
2.507335732e-07
1.49818026e-06
1.300829649e-05
1.6885131e-07
1.923983704e-07
4.928008025e-07
3.539950108e-06
1.924634525e-05
1.847682132e-07
2.507783973e-07
9.583477488e-07
5.59001285e-06
2.166306405e-05
2.110816787e-07
3.527515336e-07
1.586045291e-06
7.481433799e-06
2.186390322e-05
2.568151964e-07
5.350842218e-07
2.652650445e-06
9.027751742e-06
2.066846478e-05
3.305446972e-07
7.910270496e-07
3.453222943e-06
1.006746559e-05
1.903893871e-05
4.442948474e-07
1.141865842e-06
4.322368885e-06
1.072619185e-05
1.787718927e-05
6.161485246e-07
1.619217559e-06
5.187784672e-06
1.113363275e-05
1.702378369e-05
8.721273706e-07
2.260760785e-06
5.995736171e-06
1.133512296e-05
1.617281456e-05
1.221477226e-06
2.894747726e-06
6.683664067e-06
1.130718878e-05
1.507377518e-05
1.695598498e-06
3.615468937e-06
7.251908861e-06
1.12010752e-05
1.424346617e-05
2.352069401e-06
4.382823823e-06
7.705363119e-06
1.105403131e-05
1.349723434e-05
3.216459321e-06
5.15513226e-06
8.053545894e-06
1.080483429e-05
1.260833583e-05
4.182163002e-06
5.894858464e-06
8.331373503e-06
1.054456698e-05
1.184882836e-05
5.240939577e-06
6.612366005e-06
8.564353239e-06
1.028492368e-05
1.116811748e-05
6.261064449e-06
7.287589305e-06
8.778094199e-06
1.004486207e-05
1.056644464e-05
7.220119989e-06
7.942303887e-06
9.014927144e-06
9.891011561e-06
1.016174344e-05
8.124959839e-06
8.594047999e-06
9.304489998e-06
9.853531348e-06
9.982413996e-06
9.027242958e-06
9.345719128e-06
9.834323066e-06
1.020115586e-05
1.036265302e-05
9.936477836e-06
1.014888284e-05
1.048108694e-05
1.078031306e-05
1.117668734e-05
1.104806116e-05
1.12210981e-05
1.156097916e-05
1.207312007e-05
1.294556577e-05
1.339271903e-05
1.365161464e-05
1.424808134e-05
1.52418065e-05
1.677347162e-05
1.711240104e-05
1.74585956e-05
1.825637842e-05
1.954706189e-05
2.141108318e-05
1.96687203e-05
1.993980793e-05
2.054550699e-05
2.147676863e-05
2.272535797e-05
1.89248339e-05
1.903718155e-05
1.927240678e-05
1.960234215e-05
1.999811134e-05
1.565055029e-05
1.565321501e-05
1.564590374e-05
1.561349134e-05
1.554133509e-05
1.19645515e-05
1.192995859e-05
1.184291235e-05
1.169944978e-05
1.149814624e-05
8.78910145e-06
8.750395425e-06
8.658298607e-06
8.513925497e-06
8.319982605e-06
6.381501915e-06
6.350208205e-06
6.277566415e-06
6.165178109e-06
6.016827946e-06
4.667490793e-06
4.64570845e-06
4.595921584e-06
4.516586167e-06
4.41162928e-06
3.481810481e-06
3.46687184e-06
3.43276807e-06
3.381534839e-06
3.313587454e-06
2.688126951e-06
2.677881952e-06
2.654637583e-06
2.619402556e-06
2.573416449e-06
2.151132499e-06
2.144203356e-06
2.12853386e-06
2.104975169e-06
2.07413205e-06
1.791304888e-06
1.786490007e-06
1.775709035e-06
1.759446406e-06
1.738222978e-06
1.550897263e-06
1.547265326e-06
1.539181892e-06
1.52707583e-06
1.511218084e-06
1.385802705e-06
1.383103986e-06
1.377164917e-06
1.368249031e-06
1.35658124e-06
1.273220622e-06
1.27097658e-06
1.266079139e-06
1.258710287e-06
1.248992711e-06
1.189309417e-06
1.187429161e-06
1.183363054e-06
1.177315644e-06
1.169391499e-06
1.127189019e-06
1.12551741e-06
1.121920348e-06
1.116574983e-06
1.109582823e-06
1.075848403e-06
1.074304955e-06
1.070969996e-06
1.065970845e-06
1.059319092e-06
1.030919382e-06
1.029422533e-06
1.026206537e-06
1.021412188e-06
1.015091734e-06
9.893214673e-07
9.879401934e-07
9.849813919e-07
9.805850736e-07
9.748074442e-07
9.530130441e-07
9.517889491e-07
9.489647182e-07
9.447360107e-07
9.391682701e-07
9.176035153e-07
9.163256362e-07
9.135829495e-07
9.094981284e-07
9.041125737e-07
8.834292287e-07
8.822173868e-07
8.796189966e-07
8.757535831e-07
8.706938648e-07
8.515350102e-07
8.503763481e-07
8.478905219e-07
8.4418642e-07
8.393035049e-07
8.210417977e-07
8.19942248e-07
8.175913031e-07
8.141019854e-07
8.095206112e-07
7.969029615e-07
7.958397688e-07
7.93591029e-07
7.902011007e-07
7.85735071e-07
7.736144219e-07
7.7256584e-07
7.703230779e-07
7.669893933e-07
7.626000481e-07
7.520054108e-07
7.51009784e-07
7.488822667e-07
7.457204805e-07
7.415550128e-07
7.346049885e-07
7.336440671e-07
7.31586053e-07
7.285236596e-07
7.244821356e-07
7.179049414e-07
7.169515197e-07
7.149325058e-07
7.118528361e-07
7.077730239e-07
7.016578985e-07
7.007044717e-07
6.986663371e-07
6.956366437e-07
6.916471887e-07
6.87104989e-07
6.86200444e-07
6.842703964e-07
6.81409394e-07
6.776526125e-07
6.760569326e-07
6.751667995e-07
6.732690045e-07
6.70458847e-07
6.667714591e-07
6.673589975e-07
6.664960115e-07
6.646539963e-07
6.61916498e-07
6.583043818e-07
6.612935484e-07
6.604204356e-07
6.585550199e-07
6.557817542e-07
6.521235731e-07
6.570347545e-07
6.561567095e-07
6.542818268e-07
6.514966376e-07
6.478258779e-07
6.549685509e-07
6.540875079e-07
6.522076123e-07
6.494170018e-07
6.457415778e-07
6.536727288e-07
6.527918531e-07
6.509133112e-07
6.48126896e-07
6.444617835e-07
6.500674783e-07
6.492150706e-07
6.473988689e-07
6.447082669e-07
6.411734215e-07
6.417010069e-07
6.409249971e-07
6.392757168e-07
6.368417459e-07
6.336575035e-07
6.288017917e-07
6.280935671e-07
6.265843735e-07
6.243447791e-07
6.213678248e-07
6.107514345e-07
6.100539851e-07
6.085581253e-07
6.06327784e-07
6.033800426e-07
5.847284927e-07
5.840559173e-07
5.826107123e-07
5.804551116e-07
5.77608778e-07
5.568268499e-07
5.561980261e-07
5.548477607e-07
5.528371121e-07
5.501884655e-07
5.341352906e-07
5.335601861e-07
5.323266045e-07
5.304890355e-07
5.280662888e-07
5.201056003e-07
5.195387526e-07
5.183273985e-07
5.1653202e-07
5.141797564e-07
5.129915489e-07
5.124509008e-07
5.112986687e-07
5.095943559e-07
5.073619822e-07
5.115383436e-07
5.110222139e-07
5.099224242e-07
5.082920262e-07
5.061510507e-07
2.297737976e-05
2.697364105e-05
2.728703025e-05
2.543000828e-05
2.269104328e-05
2.022221905e-05
1.90514221e-05
1.807019824e-05
1.686751643e-05
1.534939458e-05
1.441275194e-05
1.354933425e-05
1.2526354e-05
1.170816747e-05
1.099606542e-05
1.041127125e-05
1.005766889e-05
1.001262109e-05
1.061434044e-05
1.180483851e-05
1.39569296e-05
1.823103654e-05
2.305585754e-05
2.37459426e-05
2.030360077e-05
1.548413193e-05
1.134811477e-05
8.177348639e-06
5.907870506e-06
4.334279152e-06
3.262181992e-06
2.539278789e-06
2.050967986e-06
1.722101064e-06
1.498848022e-06
1.347363125e-06
1.241084779e-06
1.162902791e-06
1.103635389e-06
1.053715455e-06
1.009767418e-06
9.699448253e-07
9.344432978e-07
8.99550812e-07
8.663842769e-07
8.351610253e-07
8.056449159e-07
7.819271266e-07
7.588721117e-07
7.380073837e-07
7.210311325e-07
7.042912216e-07
6.882515161e-07
6.744561437e-07
6.636332709e-07
6.552255229e-07
6.489902729e-07
6.446819719e-07
6.42592107e-07
6.413247544e-07
6.381512381e-07
6.309393536e-07
6.188079716e-07
6.008695115e-07
5.751984717e-07
5.479525284e-07
5.26008969e-07
5.121826045e-07
5.05464685e-07
5.043169333e-07
1.034537948e-05
3.326580264e-06
3.324281559e-06
1.83795327e-06
2.920196661e-06
1.540719538e-05
1.954120359e-05
5.674190677e-06
6.252976398e-06
9.529809401e-06
2.000951384e-05
1.79173063e-05
4.566874094e-06
1.033188393e-05
2.066561064e-05
1.980628509e-05
1.673506317e-05
5.057600953e-06
1.071246017e-05
2.412682566e-05
1.815786876e-05
1.520820701e-05
1.041964683e-05
8.950515475e-06
1.974899871e-05
1.671975085e-05
1.518976516e-05
1.455388777e-05
6.984108871e-06
1.565617127e-05
1.693024294e-05
1.822982297e-05
1.641043081e-05
5.353824406e-06
1.188998902e-05
1.660850304e-05
1.761323375e-05
1.562714919e-05
4.694560591e-06
9.010242195e-06
1.550124727e-05
1.607430656e-05
1.582078512e-05
6.548483978e-06
7.074472064e-06
1.41621873e-05
1.465408929e-05
1.45637255e-05
7.978034505e-06
5.494288472e-06
1.336553056e-05
1.402663675e-05
1.432278969e-05
8.836470022e-06
4.301344093e-06
1.265978887e-05
1.359115165e-05
1.494849809e-05
9.892103927e-06
3.608493798e-06
1.186326406e-05
1.292683072e-05
1.434818301e-05
1.068959019e-05
4.080992617e-06
1.113494965e-05
1.235099727e-05
1.389195384e-05
1.136021045e-05
4.966343664e-06
1.055158472e-05
1.189330829e-05
1.364599473e-05
1.179524003e-05
5.647139986e-06
1.013312188e-05
1.15944301e-05
1.351952729e-05
1.211908135e-05
6.313034828e-06
9.934280952e-06
1.147395631e-05
1.351107556e-05
1.245131094e-05
7.009692355e-06
1.015139466e-05
1.202606564e-05
1.400575964e-05
1.286469619e-05
7.448016565e-06
1.109875488e-05
1.350610874e-05
1.564328687e-05
1.397730451e-05
8.053937072e-06
1.29204687e-05
1.717781837e-05
2.399324502e-05
3.13851415e-05
3.280382905e-05
1.557572984e-05
2.116103778e-05
3.199407418e-05
5.230976234e-05
8.516482812e-05
2.037013192e-05
2.65311134e-05
3.71314539e-05
5.408452452e-05
7.722388664e-05
2.552270586e-05
3.119048627e-05
3.859835705e-05
4.657883919e-05
5.259437089e-05
2.535863856e-05
2.812309452e-05
3.060757529e-05
3.199431395e-05
3.148584748e-05
2.088989807e-05
2.147280047e-05
2.147094604e-05
2.068254466e-05
1.902912114e-05
1.552116981e-05
1.521670948e-05
1.44987182e-05
1.338653558e-05
1.195098942e-05
1.122035334e-05
1.075384472e-05
1.003583985e-05
9.124305323e-06
8.089484684e-06
8.031922495e-06
7.627658997e-06
7.073502381e-06
6.417042489e-06
5.713182232e-06
5.789048413e-06
5.492053693e-06
5.103581312e-06
4.652455377e-06
4.175152311e-06
4.247140798e-06
4.035802701e-06
3.775085496e-06
3.479844188e-06
3.166047261e-06
3.202291752e-06
3.062551475e-06
2.886135954e-06
2.690489494e-06
2.483586397e-06
2.49851235e-06
2.404542943e-06
2.286192622e-06
2.154137655e-06
2.014274036e-06
2.022103288e-06
1.957894675e-06
1.879391603e-06
1.78868769e-06
1.691535909e-06
1.701302463e-06
1.654718156e-06
1.597156244e-06
1.533562749e-06
1.467180298e-06
1.481760559e-06
1.446955789e-06
1.405596559e-06
1.360573633e-06
1.310403116e-06
1.334020359e-06
1.307160491e-06
1.275128619e-06
1.239406965e-06
1.201124206e-06
1.228978688e-06
1.20622196e-06
1.180459595e-06
1.152689642e-06
1.122620777e-06
1.152561681e-06
1.133520785e-06
1.112076966e-06
1.087690038e-06
1.060937477e-06
1.093864992e-06
1.076298188e-06
1.056499959e-06
1.03446095e-06
1.010551523e-06
1.044407891e-06
1.027819495e-06
1.009410133e-06
9.893467186e-07
9.678901846e-07
1.000845889e-06
9.854058027e-07
9.686365041e-07
9.506442537e-07
9.3102159e-07
9.617011096e-07
9.476547589e-07
9.319757141e-07
9.14821574e-07
8.961312894e-07
9.264507209e-07
9.125381554e-07
8.973120057e-07
8.808311607e-07
8.632338761e-07
8.918213298e-07
8.785310114e-07
8.641415978e-07
8.486145219e-07
8.320120268e-07
8.590462578e-07
8.464868455e-07
8.328898814e-07
8.181307735e-07
8.024225759e-07
8.281082174e-07
8.160154023e-07
8.030465601e-07
7.892515246e-07
7.747961689e-07
7.99015513e-07
7.87892453e-07
7.762520698e-07
7.632915553e-07
7.492291418e-07
7.754006316e-07
7.64350403e-07
7.523789882e-07
7.394885515e-07
7.257474039e-07
7.524912965e-07
7.416599764e-07
7.300491868e-07
7.176344959e-07
7.044908871e-07
7.318919098e-07
7.215537792e-07
7.105033653e-07
6.98674293e-07
6.859168848e-07
7.150699039e-07
7.04877702e-07
6.93896121e-07
6.820993671e-07
6.694316233e-07
6.983043365e-07
6.881245726e-07
6.772086072e-07
6.655684884e-07
6.532912394e-07
6.8240558e-07
6.725419855e-07
6.620669187e-07
6.510235533e-07
6.395177379e-07
6.68917801e-07
6.596889861e-07
6.496819886e-07
6.389908512e-07
6.276782352e-07
6.581873628e-07
6.490632631e-07
6.393233888e-07
6.288967725e-07
6.178634189e-07
6.498281812e-07
6.408447712e-07
6.311287465e-07
6.20678103e-07
6.095598212e-07
6.435416115e-07
6.343631888e-07
6.245797282e-07
6.141642815e-07
6.031592828e-07
6.392037865e-07
6.300145141e-07
6.202681042e-07
6.099446118e-07
5.990918858e-07
6.370881767e-07
6.278956459e-07
6.181891979e-07
6.079543544e-07
5.972551784e-07
6.358379383e-07
6.267222272e-07
6.171508659e-07
6.071535094e-07
5.968225673e-07
6.328633212e-07
6.241290209e-07
6.150377702e-07
6.056340065e-07
5.959374992e-07
6.261623417e-07
6.182538823e-07
6.099273603e-07
6.011475467e-07
5.919932318e-07
6.143394273e-07
6.071838864e-07
5.995061375e-07
5.909662449e-07
5.816635468e-07
5.965814581e-07
5.892176048e-07
5.812240551e-07
5.725627248e-07
5.632631721e-07
5.711314604e-07
5.640873438e-07
5.564225848e-07
5.481566364e-07
5.393514772e-07
5.441858923e-07
5.376873832e-07
5.306542666e-07
5.231208101e-07
5.151488505e-07
5.224914936e-07
5.164717779e-07
5.100323737e-07
5.030898747e-07
4.957144361e-07
5.087341499e-07
5.028963407e-07
4.967350458e-07
4.901746771e-07
4.833294297e-07
5.021660128e-07
4.967045036e-07
4.909772057e-07
4.84890959e-07
4.784347473e-07
5.010708006e-07
4.956268439e-07
4.899028095e-07
4.838177688e-07
4.773061226e-07
1.051856131e-06
8.052480575e-08
7.644705667e-11
0
0
0
0
0
0
0
0
0
0
0
0
0
0
0
0
0
0
0
0
0
0
0
0
0
0
0
0
0
0
0
0
0
0
0
0
0
0
0
0
0
0
0
0
0
0
0
0
0
0
0
0
0
0
0
0
0
2.189075508e-06
3.341334035e-07
9.278759636e-09
0
0
0
0
0
0
0
0
0
0
0
0
0
0
0
0
0
0
0
0
0
0
0
0
0
0
0
0
0
0
0
0
0
0
0
0
0
0
0
0
0
0
0
0
0
0
0
0
0
0
0
0
0
0
0
0
0
5.506485553e-06
1.839144011e-07
1.947462825e-08
0
0
0
0
0
0
0
0
0
0
0
0
0
0
0
0
0
0
0
0
0
0
0
0
0
0
0
0
0
0
0
0
0
0
0
0
0
0
0
0
0
0
0
0
0
0
0
0
0
0
0
0
0
0
0
0
0
1.97949077e-05
1.942106504e-06
2.008290176e-07
1.514069319e-08
2.577265667e-09
1.088652088e-09
8.090917514e-10
6.934303472e-10
5.778706354e-10
4.361712076e-10
2.740442484e-10
1.087659623e-10
0
0
0
0
0
0
0
0
0
0
0
0
0
0
0
0
0
0
0
0
0
0
0
0
0
0
0
0
0
0
0
0
0
0
0
0
0
0
0
0
0
0
0
0
0
0
0
0
3.334508636e-05
6.557045563e-06
8.832770834e-07
1.278396794e-07
2.588470515e-08
1.448160425e-08
1.218367406e-08
1.13264143e-08
1.080790323e-08
1.039176533e-08
1.002167475e-08
9.693388942e-09
9.418029736e-09
9.195093641e-09
8.99103297e-09
8.732328288e-09
8.272417956e-09
7.612496533e-09
6.945121494e-09
6.388380396e-09
5.984102e-09
5.707566468e-09
5.512765005e-09
5.363188672e-09
5.238200196e-09
5.128052605e-09
5.028455234e-09
4.937359174e-09
4.853473278e-09
4.775885343e-09
4.703814824e-09
4.636637336e-09
4.57396724e-09
4.515395659e-09
4.460415698e-09
4.408892684e-09
4.360453451e-09
4.314495619e-09
4.270758579e-09
4.229313318e-09
4.190102231e-09
4.15276632e-09
4.117449837e-09
4.084042253e-09
4.052360532e-09
4.022272888e-09
3.993622238e-09
3.966231136e-09
3.939960211e-09
3.91527104e-09
3.891769241e-09
3.869549822e-09
3.847547392e-09
3.825765849e-09
3.800092237e-09
3.768704363e-09
3.733899541e-09
3.750723741e-09
3.978482077e-09
4.324337925e-09
3.079426424e-05
1.918075504e-05
3.183209221e-06
7.145706948e-07
9.960455604e-08
3.450398662e-08
2.560251334e-08
2.328648295e-08
2.226645449e-08
2.162795005e-08
2.114279382e-08
2.074711711e-08
2.04214565e-08
2.01419267e-08
1.985334966e-08
1.946439642e-08
1.88063769e-08
1.788283134e-08
1.692297772e-08
1.609429747e-08
1.547441569e-08
1.504206139e-08
1.473498202e-08
1.449915158e-08
1.430238051e-08
1.412922925e-08
1.397280501e-08
1.382967398e-08
1.369774345e-08
1.357561446e-08
1.346202047e-08
1.33560059e-08
1.325691294e-08
1.316410693e-08
1.307683708e-08
1.299480942e-08
1.291750045e-08
1.284425658e-08
1.277472037e-08
1.27088683e-08
1.264656059e-08
1.258724647e-08
1.253102557e-08
1.247765699e-08
1.242687804e-08
1.237868451e-08
1.233293329e-08
1.228931757e-08
1.224749469e-08
1.220786311e-08
1.216997469e-08
1.213407505e-08
1.209846237e-08
1.206271287e-08
1.202112512e-08
1.197214607e-08
1.192559048e-08
1.19629371e-08
1.222906871e-08
1.256412289e-08
2.436305249e-05
3.12281016e-05
9.044273883e-06
1.973036902e-06
4.292684952e-07
7.757095991e-08
3.890162247e-08
3.234554357e-08
3.037897218e-08
2.948310595e-08
2.893896861e-08
2.853894839e-08
2.820559003e-08
2.788668871e-08
2.751530177e-08
2.700472536e-08
2.621457594e-08
2.516226125e-08
2.406420769e-08
2.309499385e-08
2.235012264e-08
2.182092365e-08
2.144429602e-08
2.11581385e-08
2.092278267e-08
2.071814611e-08
2.053476369e-08
2.036784722e-08
2.021458244e-08
2.007300514e-08
1.994154969e-08
1.981903928e-08
1.970453347e-08
1.959723585e-08
1.949634355e-08
1.940136245e-08
1.931174439e-08
1.922692882e-08
1.914653141e-08
1.907036582e-08
1.899819136e-08
1.892953002e-08
1.886432839e-08
1.880231861e-08
1.874322372e-08
1.868699068e-08
1.863348028e-08
1.85825282e-08
1.85337723e-08
1.848725665e-08
1.844258543e-08
1.83998199e-08
1.83570763e-08
1.831256068e-08
1.825879291e-08
1.818896077e-08
1.8103538e-08
1.804858427e-08
1.809278967e-08
1.818903489e-08
1.876812827e-05
3.125993419e-05
1.957023339e-05
5.819737083e-06
1.689723957e-06
2.783453445e-07
6.429427713e-08
4.020848817e-08
3.545329124e-08
3.394830254e-08
3.328104211e-08
3.288167521e-08
3.25596585e-08
3.221954791e-08
3.178207129e-08
3.116935281e-08
3.027640456e-08
2.913868047e-08
2.795169822e-08
2.688121716e-08
2.603205596e-08
2.541225013e-08
2.496694475e-08
2.463177265e-08
2.436126251e-08
2.413028041e-08
2.392617108e-08
2.374226285e-08
2.357463877e-08
2.342064071e-08
2.327827756e-08
2.314604749e-08
2.302273582e-08
2.290736929e-08
2.279907391e-08
2.269719052e-08
2.2601116e-08
2.251030175e-08
2.242432323e-08
2.234285881e-08
2.2265592e-08
2.219212978e-08
2.212228146e-08
2.20558087e-08
2.199247841e-08
2.193213947e-08
2.187458236e-08
2.18196739e-08
2.176715785e-08
2.171691447e-08
2.166854447e-08
2.162166549e-08
2.157415422e-08
2.152239654e-08
2.145637388e-08
2.136243026e-08
2.122682434e-08
2.10570019e-08
2.088555975e-08
2.079720006e-08
1.483395714e-05
2.678554949e-05
2.979077751e-05
1.289371089e-05
4.485184271e-06
1.162019754e-06
1.529912327e-07
5.299536715e-08
3.97111092e-08
3.662567118e-08
3.560759332e-08
3.515194008e-08
3.483374276e-08
3.448346774e-08
3.400168138e-08
3.331588231e-08
3.234660135e-08
3.114269809e-08
2.988753533e-08
2.873633658e-08
2.779414273e-08
2.708284085e-08
2.656080417e-08
2.616742013e-08
2.585419732e-08
2.55915107e-08
2.536315332e-08
2.5160119e-08
2.497695389e-08
2.48099988e-08
2.465665015e-08
2.451494914e-08
2.438335545e-08
2.426066728e-08
2.414585464e-08
2.40381088e-08
2.393672057e-08
2.384108936e-08
2.37507107e-08
2.366516749e-08
2.35840798e-08
2.350707308e-08
2.343387062e-08
2.336421311e-08
2.329787296e-08
2.323465814e-08
2.317435504e-08
2.311678057e-08
2.306170801e-08
2.300893329e-08
2.295798873e-08
2.290804043e-08
2.285652974e-08
2.279800412e-08
2.272025224e-08
2.260460874e-08
2.242903127e-08
2.218355452e-08
2.189960646e-08
2.173713844e-08
1.172103473e-05
2.18448383e-05
3.262475686e-05
2.211517086e-05
9.407355176e-06
2.954158664e-06
4.923428976e-07
8.514089842e-08
4.563419303e-08
3.88467423e-08
3.708268859e-08
3.647423862e-08
3.613503763e-08
3.577484729e-08
3.526303667e-08
3.452773008e-08
3.35053228e-08
3.225310056e-08
3.094711892e-08
2.973304158e-08
2.871275192e-08
2.791680917e-08
2.731639482e-08
2.685846854e-08
2.649525117e-08
2.61944973e-08
2.593693543e-08
2.571109023e-08
2.550969378e-08
2.532782766e-08
2.516204343e-08
2.500979277e-08
2.486914544e-08
2.47385911e-08
2.46169043e-08
2.450309258e-08
2.439632431e-08
2.429589678e-08
2.420121614e-08
2.411177741e-08
2.402713536e-08
2.394689133e-08
2.387070823e-08
2.379828765e-08
2.372937198e-08
2.366373337e-08
2.360115523e-08
2.354142719e-08
2.348430609e-08
2.342950428e-08
2.337642698e-08
2.332380244e-08
2.326844625e-08
2.320338793e-08
2.311487065e-08
2.298201176e-08
2.278118347e-08
2.250041751e-08
2.218108118e-08
2.20125826e-08
9.401414252e-06
1.704246059e-05
2.896964934e-05
3.266111458e-05
1.676150481e-05
6.24484805e-06
1.444087698e-06
1.766183646e-07
5.634755923e-08
4.132669728e-08
3.82482013e-08
3.739255062e-08
3.701271245e-08
3.664099509e-08
3.610821541e-08
3.534098078e-08
3.428550003e-08
3.300343639e-08
3.166483812e-08
3.040644374e-08
2.93254881e-08
2.845730144e-08
2.778350698e-08
2.725995703e-08
2.684258437e-08
2.649893105e-08
2.620790738e-08
2.595594129e-08
2.573390003e-08
2.553541157e-08
2.535595753e-08
2.519226006e-08
2.504188924e-08
2.490297705e-08
2.477405088e-08
2.465391962e-08
2.454160186e-08
2.443627518e-08
2.433724464e-08
2.424391883e-08
2.415578349e-08
2.407239365e-08
2.39933614e-08
2.391834781e-08
2.384705708e-08
2.377922208e-08
2.371460263e-08
2.365295946e-08
2.359401206e-08
2.353737748e-08
2.348228385e-08
2.34270125e-08
2.336765677e-08
2.32960588e-08
2.319754959e-08
2.30511779e-08
2.28353259e-08
2.254235762e-08
2.222339555e-08
2.207681852e-08
7.230070966e-06
1.407095376e-05
2.423941242e-05
3.951177334e-05
2.686020935e-05
1.119795168e-05
3.078336001e-06
4.169426419e-07
8.092600603e-08
4.497479775e-08
3.93614589e-08
3.811851072e-08
3.76752496e-08
3.728639846e-08
3.673615623e-08
3.594909647e-08
3.487842591e-08
3.358619336e-08
3.223510376e-08
3.095280736e-08
2.983062554e-08
2.890599327e-08
2.816871858e-08
2.758324552e-08
2.711099322e-08
2.672152134e-08
2.639362534e-08
2.611254992e-08
2.586759946e-08
2.565090477e-08
2.545671672e-08
2.528086186e-08
2.5120281e-08
2.497267782e-08
2.483627669e-08
2.47096651e-08
2.459169108e-08
2.448140008e-08
2.437798835e-08
2.428077491e-08
2.418917463e-08
2.410268565e-08
2.402087176e-08
2.394335008e-08
2.386978516e-08
2.379987114e-08
2.373333613e-08
2.3669903e-08
2.36092334e-08
2.355082125e-08
2.349366372e-08
2.343557172e-08
2.337189568e-08
2.329356554e-08
2.318556768e-08
2.302806139e-08
2.280274033e-08
2.250783178e-08
2.220182529e-08
2.2086383e-08
5.795635312e-06
1.167874387e-05
2.054852885e-05
3.95924415e-05
3.927335602e-05
1.801207705e-05
5.416001445e-06
9.568477812e-07
1.281922074e-07
5.040730976e-08
4.044003999e-08
3.868517585e-08
3.816806585e-08
3.775679088e-08
3.718961713e-08
3.639075214e-08
3.531871668e-08
3.403521508e-08
3.269405422e-08
3.141120339e-08
3.027105572e-08
2.931060163e-08
2.85254196e-08
2.788751863e-08
2.736446329e-08
2.692947997e-08
2.656302275e-08
2.625053779e-08
2.598058042e-08
2.574407912e-08
2.553406049e-08
2.53453371e-08
2.517409863e-08
2.501752271e-08
2.487346767e-08
2.474026064e-08
2.461655928e-08
2.450126312e-08
2.439345416e-08
2.429235816e-08
2.419731545e-08
2.410776218e-08
2.402321018e-08
2.394323154e-08
2.386744959e-08
2.37955208e-08
2.372713726e-08
2.36619754e-08
2.359962074e-08
2.353940789e-08
2.348004747e-08
2.341885937e-08
2.335048823e-08
2.326520208e-08
2.314810289e-08
2.29810119e-08
2.274923789e-08
2.245671935e-08
2.216731808e-08
2.208627099e-08
4.684879376e-06
9.981875713e-06
1.803908726e-05
3.527598903e-05
5.208684973e-05
2.669481626e-05
8.590492476e-06
1.951424557e-06
2.159070062e-07
5.86074232e-08
4.149744462e-08
3.906861693e-08
3.846796753e-08
3.803160705e-08
3.744958269e-08
3.664681509e-08
3.558636067e-08
3.432927478e-08
3.301970909e-08
3.176146422e-08
3.062989589e-08
2.965922868e-08
2.884784209e-08
2.817374661e-08
2.761030994e-08
2.71352048e-08
2.673193794e-08
2.638770132e-08
2.609154552e-08
2.583395832e-08
2.560707219e-08
2.540475039e-08
2.522238185e-08
2.505654203e-08
2.490465981e-08
2.476475719e-08
2.463527404e-08
2.451494745e-08
2.440273704e-08
2.429777053e-08
2.419930982e-08
2.41067238e-08
2.401946904e-08
2.393707061e-08
2.385911069e-08
2.378520993e-08
2.371501586e-08
2.36481468e-08
2.358409104e-08
2.352198882e-08
2.346022228e-08
2.339561639e-08
2.332218663e-08
2.322977881e-08
2.310395518e-08
2.29284534e-08
2.269215244e-08
2.240408141e-08
2.213217197e-08
2.208672154e-08
3.807502972e-06
8.626121105e-06
1.581301787e-05
3.221354588e-05
6.420554741e-05
3.588671379e-05
1.181850486e-05
3.151422664e-06
3.83608157e-07
7.438155072e-08
4.282380533e-08
3.92929359e-08
3.856758189e-08
3.80906256e-08
3.748984041e-08
3.668775197e-08
3.564970461e-08
3.443482866e-08
3.317783007e-08
3.196943824e-08
3.087471786e-08
2.992207877e-08
2.91105284e-08
2.842210554e-08
2.783489419e-08
2.733092923e-08
2.689743573e-08
2.652452025e-08
2.620305621e-08
2.592420402e-08
2.567992117e-08
2.546347593e-08
2.526957798e-08
2.509420967e-08
2.493433993e-08
2.478765474e-08
2.46523493e-08
2.45269825e-08
2.441037992e-08
2.430156498e-08
2.419971583e-08
2.410413124e-08
2.401420938e-08
2.392942782e-08
2.384932719e-08
2.377348924e-08
2.37015079e-08
2.363292738e-08
2.35671137e-08
2.350298375e-08
2.343856687e-08
2.337020927e-08
2.329140142e-08
2.319179969e-08
2.305768456e-08
2.287482159e-08
2.263549077e-08
2.235306415e-08
2.209855318e-08
2.208771419e-08
3.215570737e-06
7.514818703e-06
1.503211217e-05
3.254972692e-05
7.61783703e-05
4.219791706e-05
1.366543609e-05
3.866330968e-06
6.016137143e-07
1.019663986e-07
4.508596249e-08
3.946864252e-08
3.848651926e-08
3.79318152e-08
3.730213817e-08
3.650291026e-08
3.549622057e-08
3.433825332e-08
3.315273232e-08
3.201772451e-08
3.098471132e-08
3.007647045e-08
2.929082336e-08
2.861171218e-08
2.802060494e-08
2.750321658e-08
2.705037978e-08
2.665557087e-08
2.631242401e-08
2.601388227e-08
2.575267323e-08
2.552209455e-08
2.531651302e-08
2.513146218e-08
2.496349633e-08
2.480996709e-08
2.466881522e-08
2.453841011e-08
2.441743322e-08
2.430479739e-08
2.419959267e-08
2.410104552e-08
2.400849495e-08
2.392136913e-08
2.383916411e-08
2.376141581e-08
2.368765544e-08
2.361733592e-08
2.354967532e-08
2.348334302e-08
2.341600672e-08
2.33435678e-08
2.325911301e-08
2.315232018e-08
2.301037954e-08
2.282113074e-08
2.258003798e-08
2.230409598e-08
2.206653291e-08
2.208799356e-08
3.184802973e-06
7.501269418e-06
1.663426117e-05
4.00767198e-05
8.727365079e-05
4.117944388e-05
1.299667769e-05
3.763388892e-06
8.341041983e-07
1.422041168e-07
4.914948602e-08
3.969617858e-08
3.823427455e-08
3.756313688e-08
3.690017155e-08
3.611025017e-08
3.514611455e-08
3.406118539e-08
3.296382104e-08
3.191800503e-08
3.096560395e-08
3.012270046e-08
2.938452377e-08
2.873559203e-08
2.815960312e-08
2.76450054e-08
2.718554988e-08
2.677784628e-08
2.641864816e-08
2.610348432e-08
2.582675769e-08
2.558254188e-08
2.536534865e-08
2.517052989e-08
2.499435008e-08
2.483387307e-08
2.468679706e-08
2.455129995e-08
2.44259136e-08
2.430943507e-08
2.420086337e-08
2.409934995e-08
2.400417345e-08
2.391470888e-08
2.383040199e-08
2.375073402e-08
2.367516299e-08
2.360303155e-08
2.353338108e-08
2.34646098e-08
2.339402113e-08
2.331711059e-08
2.322667244e-08
2.311257472e-08
2.29630622e-08
2.276807308e-08
2.252606243e-08
2.225703634e-08
2.203568152e-08
2.208691956e-08
4.079478689e-06
1.027017875e-05
2.729307771e-05
9.373506237e-05
8.826981354e-05
3.245151142e-05
1.015155799e-05
3.06325644e-06
8.742073314e-07
2.081824825e-07
6.347802556e-08
4.158058153e-08
3.816849528e-08
3.712031165e-08
3.63667663e-08
3.557951124e-08
3.466431595e-08
3.366232888e-08
3.266453682e-08
3.172094895e-08
3.086327398e-08
3.010132131e-08
2.942764836e-08
2.882663387e-08
2.828296198e-08
2.77863328e-08
2.733209169e-08
2.691936307e-08
2.654854149e-08
2.621874852e-08
2.592700943e-08
2.566885026e-08
2.543935476e-08
2.523394769e-08
2.50487408e-08
2.4880572e-08
2.472691484e-08
2.458575342e-08
2.445546262e-08
2.433471293e-08
2.422240175e-08
2.411759985e-08
2.401951635e-08
2.392746436e-08
2.38408284e-08
2.375901923e-08
2.368140171e-08