/*--------------------------------*- C++ -*----------------------------------*\
  =========                 |
  \\      /  F ield         | OpenFOAM: The Open Source CFD Toolbox
   \\    /   O peration     | Website:  https://openfoam.org
    \\  /    A nd           | Version:  10
     \\/     M anipulation  |
\*---------------------------------------------------------------------------*/
FoamFile
{
    format      ascii;
    class       volScalarField;
    location    "0.02498436188";
    object      k_0;
}
// * * * * * * * * * * * * * * * * * * * * * * * * * * * * * * * * * * * * * //

dimensions      [0 2 -2 0 0 0 0];

internalField   nonuniform List<scalar> 
5170
(
7.399196778
7.398891227
7.401316473
7.484814034
9.540872617
6.786018738
6.78712082
6.794973438
6.946595372
12.75843882
6.314465392
6.309682478
6.314875813
6.781042204
16.45839408
5.860891643
5.865527847
5.898769576
6.643289193
18.87690851
5.480042382
5.46870419
5.506065145
6.576352477
21.54339891
5.132875107
5.100956992
5.073804574
6.536696516
23.13123006
4.868269262
4.865683162
4.928044807
6.518053004
23.88502709
4.557073796
4.534316858
4.577563102
6.527165953
24.32904028
4.305498774
4.265580436
4.29094686
6.566617063
24.54020732
4.056636532
4.006795208
4.090968376
6.742103189
24.582427
3.871263584
3.824586161
3.918292815
7.010791439
24.51285533
3.654454923
3.606703567
3.794276132
7.295922269
24.37794356
3.477370437
3.461254772
3.709698975
7.636977617
24.2081031
3.294032066
3.266480594
3.669924954
8.063232587
24.02288503
3.138120771
3.179178228
3.661072357
8.559612287
23.83415706
3.012461803
3.004071948
3.731257986
9.416442692
23.65331092
2.860156674
2.918588288
3.824894543
9.886942952
23.49101599
2.769994856
2.857302489
4.025889599
10.89168624
23.35654355
2.633155168
2.833991943
4.268512547
11.45343344
23.22767882
2.59603876
2.874650471
4.712097647
13.41511949
21.87350285
0.4545211315
0.702493326
0.738059084
0.6976898348
0.4262815139
0.2153214344
0.6176525448
0.6547014661
0.5004282068
0.1627432466
0.1167398534
0.5081532976
0.5522236178
0.3689929703
0.07147420429
0.07663240606
0.3915398704
0.4714582486
0.3799495243
0.04764421616
0.06107535334
0.3539502477
0.4219172252
0.4369598977
0.04800512251
0.05169527283
0.3207947293
0.3879709873
0.5565913684
0.05779345867
0.04889120554
0.3305045041
0.3949855097
0.8204182455
0.08328297762
0.04912238538
0.3456713814
0.4334719126
1.205113805
0.1248095405
0.05134794434
0.3696601763
0.4937907241
1.572947689
0.1714570563
0.05432592361
0.393622812
0.5641381349
1.871368322
0.2153143612
0.05743028184
0.4152348864
0.6420892258
2.152430306
0.2577730993
0.06072910591
0.4385206203
0.7171332327
2.388119719
0.2955497909
0.06355216507
0.4557615801
0.7916064294
2.608655255
0.3298800456
0.06661224884
0.4750198755
0.8626752828
2.742161142
0.3568830495
0.06941122886
0.4903744
0.9372826285
2.920017588
0.388902517
0.07287924814
0.5150251329
1.020327002
3.146324754
0.4191691702
0.07622216904
0.5263106608
1.091103379
3.217054121
0.4308042126
0.08341858037
0.5471935436
1.1652915
3.293558944
0.4483838837
0.09935147331
0.5655987355
1.264515301
3.351743241
0.4639041387
0.8861716949
0.8836576342
1.667780481
3.346086928
0.4761533878
2.513706736
2.863981823
5.118855556
13.4580183
19.45368406
2.47013754
2.887882879
5.55119572
13.81375332
21.37433484
2.407103255
2.956840625
6.10987206
14.65937998
25.60725438
2.389619521
3.07697192
6.815969656
16.02696369
30.10923552
2.400457045
3.246038409
7.437474371
17.91024941
33.39193486
2.450845018
3.537670728
8.521971186
20.38812382
35.63060098
2.557643835
4.008392545
10.14938589
22.90369874
37.59827513
2.720617408
4.666874604
12.0283291
25.32580934
39.5337506
2.970105723
5.585335162
14.20661519
27.60600923
41.34699141
3.341406709
6.78034639
16.45956366
29.68254694
42.99516753
3.904875988
8.398955421
19.08593258
31.84389656
44.66480286
4.902603298
10.64273536
21.69177925
33.92272687
46.11920773
7.190791386
13.61087026
24.43029797
36.10563764
47.65569065
9.641485836
16.23980407
26.73694385
37.95777783
49.02663706
13.46526675
19.50633411
29.27267622
39.84504546
50.33538968
16.83789284
22.1090647
31.10403983
41.22688399
51.43260726
20.38778298
25.08714651
33.53976666
43.31544465
53.24927188
25.30277738
29.29181983
36.70133867
45.59130092
54.86570557
28.98866655
32.29450296
38.8435932
47.30628421
56.56120789
32.55099628
35.85736913
42.48611098
51.28172819
61.39716482
40.52262736
44.15426804
51.78905499
62.40168233
75.25855459
64.82009011
68.60947808
76.54002885
87.05241821
98.15640409
93.0356526
94.95591804
98.9423531
104.1753552
109.53106
100.1282602
100.9670795
102.7362749
105.0832674
107.5609061
96.62619821
97.03341666
97.76263901
98.29381049
98.20258432
83.12057184
82.8087664
82.10811853
81.15333586
79.91242978
64.81086182
64.64921348
64.26166908
63.64326664
62.78083263
50.487243
50.38433018
50.1261537
49.70837071
49.12523649
39.80714789
39.73729223
39.56852676
39.29744071
38.92144205
32.03724365
31.99591667
31.8914828
31.72317645
31.48928795
26.38697776
26.36074746
26.29680789
26.19374184
26.05007653
22.16244829
22.14836023
22.11050692
22.04852331
21.96105917
18.9270223
18.91792111
18.89516146
18.85767292
18.8042618
16.40625792
16.4021552
16.38903149
16.36670242
16.33415141
14.44343233
14.440335
14.43219761
14.41830009
14.39775007
12.90085507
12.89953899
12.89448024
12.88552343
12.87193708
11.67307965
11.67167604
11.66797343
11.66153134
11.65172456
10.66689009
10.66618487
10.66347266
10.6586203
10.65113557
9.821034884
9.82011576
9.817801969
9.81383689
9.807783205
9.089264572
9.088751757
9.086901216
9.083684598
9.078736832
8.445560756
8.444899313
8.443280405
8.440551479
8.436404637
7.869580194
7.869215663
7.867914067
7.865674189
7.862239827
7.35061532
7.350144809
7.349006886
7.347101843
7.344212072
6.878445103
6.878199977
6.87729389
6.875736015
6.873348394
6.447844624
6.447519531
6.446732727
6.445415301
6.443414086
6.052811469
6.052651054
6.052033282
6.050968139
6.049325018
5.690423568
5.690203469
5.689669684
5.688773277
5.68740292
5.356615009
5.356505597
5.356091648
5.355373799
5.354255044
5.049070704
5.048924564
5.048567417
5.047964374
5.047033536
4.764745004
4.764683183
4.7644122
4.763935412
4.763181829
4.501573398
4.501480197
4.501246702
4.500848505
4.500224462
4.257237411
4.257208419
4.257038295
4.256731461
4.256234976
4.030366164
4.030311939
4.030167782
4.029916266
4.029512151
3.819170154
3.819163363
3.819063577
3.818875575
3.818559364
3.622652285
3.622622707
3.622538733
3.622386879
3.622132593
3.439270726
3.43927762
3.439224507
3.439116547
3.438922669
3.268196142
3.268183574
3.268139622
3.268054632
3.267902297
3.108028166
3.108043201
3.1080211
3.107966439
3.107855629
2.958183701
2.958181313
2.958164122
2.958124442
2.958042001
2.817439227
2.817459069
2.817457582
2.817439148
2.817385437
2.685628078
2.685631339
2.685631396
2.685621694
2.685586825
2.561334945
2.561356864
2.56136828
2.561373088
2.561357467
2.445001109
2.445008658
2.445020175
2.445030404
2.445027537
2.334541746
2.334564067
2.334583183
2.334602572
2.334611497
2.232021479
2.232031489
2.232049399
2.232071303
2.232088015
2.132732026
2.132753365
2.1327758
2.132802484
2.132824991
2.044207165
2.044217024
2.044235466
2.044259646
2.044282279
1.949799029
1.949822781
1.949854587
1.949896558
1.949941706
1.884529814
1.884535947
1.884544809
1.884554219
1.884557599
1.7683782
1.768390447
1.768413372
1.768447035
1.768491697
25.62023176
34.88515826
39.03141231
41.62787324
43.47363809
45.078687
46.70956193
48.3624616
49.84854386
51.18265071
52.50993322
53.57470658
54.75675873
55.84510596
56.85520528
57.83389732
59.51732996
60.85540711
62.7429008
68.49075251
84.07712672
104.812964
112.5590333
108.9387101
97.48791318
78.98753465
62.10839487
48.67518651
38.63363181
31.31054413
25.94032283
21.89422033
18.76354687
16.30917706
14.38174708
12.86097132
11.64352074
10.64462831
9.802390923
9.074236213
8.432608375
7.859062732
7.341536529
6.871121011
6.441550377
6.047784099
5.686119061
5.353199034
5.046156297
4.76246245
4.499631562
4.25575458
4.029120259
3.818246816
3.621880699
3.438725099
3.267745952
3.107736724
2.957952043
2.817321555
2.685542021
2.561329854
2.445013784
2.334608442
2.232093765
2.13283602
2.044295254
1.94997257
1.884555305
1.768532824
38.21881367
9.44534227
3.505977751
2.999242111
0.644131645
50.82360671
34.2841737
10.60585603
4.075005985
0.9767894357
54.9126665
50.22649804
29.39614974
10.89884145
2.604723254
56.1247892
58.25704973
46.62694601
26.64189978
9.431130103
56.6686928
63.53995401
57.73231441
39.70123768
20.16883894
57.65789457
67.4766447
65.09404535
50.3175342
30.70494834
58.94268948
69.84686935
69.71300981
58.31006419
39.86747894
60.24441563
71.672378
73.22919808
64.76197849
47.94393557
61.31266266
72.86578812
76.23056173
70.42139871
55.67413523
62.23505599
73.90850178
78.26504369
74.4168973
62.14600414
63.10097167
74.64253017
79.73806841
77.56898981
67.81100944
63.65735765
75.02122949
80.82653707
80.24204921
72.73401806
64.39548585
75.69301156
82.18548772
82.95925224
77.46278376
65.13944054
76.37279103
83.32064747
85.25784679
81.47858413
65.78140648
76.87842573
84.27629924
87.30782749
85.24535462
66.60646978
77.80217344
85.83050721
89.99571939
89.46899202
68.14118596
79.40086236
87.65694996
92.40636036
93.02019066
69.16720038
80.32683101
88.85584305
94.32588966
96.1037656
71.34955342
83.50461706
93.81076136
101.49694
104.5674271
78.41871024
94.16551581
107.9261615
115.4343746
112.0305769
95.79660507
112.0664127
121.6396063
121.292192
110.834066
113.223939
121.9071369
123.4598713
117.4455216
103.2478601
116.438112
119.4601769
117.1477955
107.6592477
93.64003355
110.6180905
109.5444415
103.7249692
94.45826598
82.88462416
96.62440977
93.30624313
87.74696812
80.21808312
71.39507096
77.95772906
75.08003776
70.82151392
65.40553357
59.22340161
61.37410716
59.33063686
56.39212392
52.7224053
48.54982896
48.19386583
46.84469816
44.91331527
42.50364717
39.74600333
38.33072164
37.46969236
36.22951551
34.66978517
32.8622696
31.12537305
30.58566928
29.796609
28.78938931
27.60159268
25.82961434
25.49320208
24.98965376
24.33367237
23.5436564
21.83015377
21.62073152
21.296396
20.86313718
20.32913438
18.72737099
18.59635757
18.38476021
18.09421494
17.72754152
16.28859363
16.20506463
16.06443525
15.86610062
15.61005994
14.36868845
14.31275795
14.21620943
14.07723117
13.89433114
12.85119861
12.81105585
12.74172871
12.64082594
12.50615175
11.63506175
11.60411489
11.55180779
11.47557976
11.37298967
10.6369549
10.611919
10.57080754
10.51114232
10.43051654
9.795388164
9.774552933
9.741284241
9.693304382
9.628372707
9.068006215
9.050535604
9.023194874
8.983956881
8.930804023
8.427143387
8.412430315
8.389736156
8.357282429
8.31328198
7.854374017
7.842020368
7.82311482
7.796113123
7.759450455
7.33754124
7.327166281
7.31136257
7.288794852
7.258098898
6.867768274
6.859093259
6.845880537
6.826980273
6.801208622
6.4387425
6.431490105
6.420429847
6.404572195
6.382889066
6.045458455
6.039420023
6.03017064
6.016859404
5.998594389
5.684185507
5.679149535
5.671405935
5.660219336
5.64481444
5.351604463
5.347418101
5.340939561
5.331533878
5.318526952
5.044834429
5.041346326
5.035918292
5.027999805
5.017002927
4.761381994
4.758489927
4.753948859
4.747281759
4.737976458
4.498741864
4.496340913
4.492539143
4.486921345
4.479040164
4.255040704
4.253066207
4.249896606
4.245170978
4.238499132
4.028544185
4.02691952
4.024276984
4.020301177
4.014650601
3.817789163
3.816461265
3.814263992
3.810921942
3.806136154
3.621515142
3.620428965
3.61860201
3.615792469
3.611737773
3.438440371
3.437559951
3.436046087
3.433686734
3.430251365
3.267524404
3.266811941
3.265558785
3.263578211
3.260667265
3.107571772
3.107002777
3.105969647
3.104308463
3.101840708
2.957832126
2.957382588
2.956535871
2.955147605
2.953060383
2.817240616
2.816891092
2.816199769
2.815039842
2.813272539
2.685492077
2.68522594
2.684667479
2.683704741
2.682215074
2.561305699
2.561107099
2.560656311
2.559854833
2.558594438
2.445010663
2.444871542
2.444517097
2.44386021
2.442804927
2.33462025
2.334523931
2.334241402
2.333695844
2.332802399
2.232117803
2.232060963
2.231846009
2.231404416
2.23066062
2.132866577
2.132833308
2.132662924
2.132294956
2.131662485
2.044328615
2.044311664
2.044175782
2.04386717
2.04332637
1.950031053
1.950068558
1.950006686
1.949796772
1.949385064
1.884566285
1.884509103
1.88433597
1.884004933
1.883472853
1.768608344
1.7687182
1.768812344
1.768881025
1.768908877
0.02256883109
0.002292994904
0.002614891049
0.00270476707
0.002747875738
0.002760905022
0.00276282427
0.002758813391
0.002752471687
0.00274588558
0.002740633321
0.002737340732
0.002736525424
0.002739437559
0.002746749451
0.00275385944
0.002759752338
0.002764640098
0.00276877521
0.002771864408
0.002773383236
0.002773581443
0.002772935386
0.002771492161
0.002769326895
0.002766804803
0.002764018148
0.002760611611
0.0027568487
0.002753235569
0.002749739578
0.002746156236
0.00274229711
0.002738055529
0.002734023045
0.002730359249
0.002726810925
0.002723366517
0.002719983505
0.002716948705
0.002713963957
0.002711294029
0.002708783241
0.002706540171
0.002704401205
0.002702448829
0.00270066407
0.002699121732
0.002697695835
0.002696546844
0.002695521148
0.002694708216
0.002694113293
0.002693702375
0.002693369675
0.002692986126
0.002692715434
0.00269214721
0.002687223749
0.002645350051
0.06771423528
0.003156063881
0.002679662881
0.002918677581
0.003009384623
0.003039119431
0.003036131956
0.003013156479
0.002978737248
0.002942654694
0.002912911035
0.00289130473
0.00287612469
0.002866855927
0.002856603324
0.002847392955
0.002838689124
0.002830158276
0.002821198121
0.002811812251
0.002802238785
0.002793220378
0.002784717645
0.002776673996
0.002769030679
0.002762016803
0.002755589494
0.002749553076
0.00274381613
0.002738535353
0.002733689028
0.002729109697
0.00272472192
0.002720518455
0.00271677829
0.002713365269
0.002710212202
0.00270734853
0.002704777772
0.002702461424
0.002700327868
0.002698472767
0.002696832176
0.002695310065
0.002693985548
0.002692827957
0.002691898083
0.002691018303
0.002690300784
0.002689613168
0.002689060455
0.002688530686
0.002688006104
0.002687452981
0.002687036153
0.00268670882
0.002686328861
0.002683674528
0.002665625642
0.002533224992
0.2676454352
0.01189220103
0.003482066096
0.003696964304
0.003897635482
0.003977954072
0.003946293263
0.00384664932
0.00370329133
0.003551387308
0.00340384568
0.003274884122
0.003167699702
0.003079197169
0.003010019307
0.002957598723
0.002918510892
0.002888485276
0.00286344841
0.00284180207
0.002822358791
0.00280459152
0.002789515857
0.00277669739
0.002765730794
0.002756126673
0.002747739101
0.002740352197
0.002733811563
0.002728032736
0.002722909776
0.002718312788
0.00271420356
0.002710497009
0.002707178849
0.002704197206
0.002701505057
0.002699088436
0.002696931289
0.002694989981
0.002693237126
0.002691635202
0.002690145206
0.002688779505
0.002687510491
0.002686345006
0.002685389031
0.002684655952
0.002684071208
0.002683514546
0.002683018199
0.002682530476
0.002682139978
0.002681734549
0.002681443922
0.002680987638
0.002679918192
0.002674300985
0.00264195322
0.002428323295
1.963406296
0.1890326025
0.01247247382
0.006228426344
0.006137746097
0.006231698784
0.006110155701
0.00583255339
0.005447039224
0.005021473421
0.004595144124
0.004210382308
0.003885070679
0.003623173687
0.003421231009
0.003270440879
0.003157900118
0.003071513192
0.003004792487
0.002952356395
0.00291118754
0.002878577584
0.002851716121
0.002829242515
0.002810191018
0.002793860941
0.002779803594
0.002767621933
0.002757001873
0.002747728996
0.002739588752
0.00273241409
0.002726100061
0.002720502691
0.002715563018
0.002711203738
0.002707307855
0.002703807829
0.00270071307
0.002697978897
0.002695546961
0.002693337659
0.002691304149
0.002689468999
0.002687754082
0.002686160863
0.002684626895
0.002683304025
0.002682028135
0.002680861737
0.002679838068
0.002678885955
0.002678072505
0.002677325453
0.002676667334
0.002675683261
0.002673260436
0.002663409996
0.002617103616
0.002329429627
5.530410883
0.9123339537
0.08940739483
0.01538182796
0.01093360931
0.01081803501
0.01022423957
0.009504558676
0.00868194123
0.007829307335
0.006983069207
0.006188626662
0.005475588227
0.004868619121
0.004375943463
0.003994942274
0.003710199995
0.003501456636
0.003349640523
0.003236811553
0.003150102365
0.003081115371
0.003024564789
0.002977441725
0.002937679319
0.002903861767
0.002874914133
0.002849970973
0.002828330534
0.002809448237
0.002792901712
0.00277839161
0.002765676431
0.002754468876
0.002744571447
0.002735839089
0.002728043581
0.002721054312
0.002714877721
0.002709462596
0.002704656673
0.002700426174
0.002696728687
0.002693289595
0.002690142018
0.002687280338
0.002684600589
0.002682200884
0.002680144454
0.002678340747
0.002676682955
0.002675183955
0.002673927453
0.002672790769
0.002671691249
0.002669932865
0.002665609316
0.002650909087
0.002589338463
0.002236239009
12.97516737
3.16351193
0.5203620456
0.06570565388
0.02130907836
0.01727054493
0.01585883999
0.01450449134
0.01308165553
0.01163621646
0.01021115955
0.008873432831
0.007666298786
0.006620841729
0.005748176351
0.005045391749
0.004498874803
0.004088001878
0.003788601162
0.003572740806
0.003414480698
0.003294502472
0.003200237458
0.003123916282
0.003060826428
0.003008068994
0.002963472886
0.002925410498
0.002892721128
0.002864487095
0.002839952179
0.002818599852
0.002799970033
0.002783583984
0.002769123894
0.002756378644
0.002745108758
0.002735147318
0.00272636015
0.002718597434
0.002711654473
0.002705471379
0.002700043825
0.002695261471
0.002691108005
0.002687439463
0.002683920286
0.002680559505
0.002677630884
0.002675159091
0.002673152236
0.002671347652
0.002669758835
0.002668237515
0.00266662958
0.002663765538
0.002657076701
0.00263683623
0.002557894446
0.002143311342
20.9342324
7.502165561
1.795208139
0.3298473531
0.05583289843
0.02519018771
0.02229078565
0.02038893158
0.01841696525
0.01637591702
0.01433466891
0.01237729098
0.01057931756
0.008993467704
0.007643979444
0.006532696219
0.005643904193
0.004952644926
0.00443209938
0.004050256637
0.003773283445
0.003570297628
0.003417637866
0.003299021309
0.003204130116
0.003126537805
0.003062080114
0.003007899917
0.00296193963
0.002922664596
0.002888948185
0.002859857803
0.00283464328
0.002812678851
0.002793473499
0.002776652358
0.002761913221
0.002748991481
0.002737633257
0.002727621015
0.002718715033
0.002710815687
0.002703866395
0.002697740065
0.00269244699
0.002687844624
0.002683781081
0.002680003322
0.002676452128
0.002673188976
0.002670491073
0.002668195341
0.002666298952
0.002664290328
0.002661955019
0.002657652742
0.002648035572
0.002620641236
0.002523150532
0.002059346236
28.47652782
13.12678323
4.436287634
1.122623174
0.2403249192
0.05019876947
0.03007877174
0.02692754405
0.02432036558
0.02170332684
0.01906575133
0.01649223681
0.01407937947
0.01190716464
0.01002222622
0.008440359886
0.00714881184
0.006119561169
0.005323763473
0.004723892557
0.004279909251
0.003954526157
0.003714594296
0.003533606542
0.003393126752
0.003281075634
0.003189780812
0.003114224394
0.003050936111
0.00299746227
0.002951951582
0.002912990704
0.002879470063
0.002850474739
0.002825310337
0.002803434096
0.002784391271
0.002767773891
0.002753226619
0.002740436387
0.002729142072
0.002719185131
0.002710444364
0.002702719207
0.002695822885
0.002689743115
0.002684687071
0.002680347501
0.002676445029
0.002672771594
0.002669498796
0.002666394338
0.002663770391
0.002661107045
0.00265781392
0.002651637505
0.002638407221
0.002602981816
0.002484751547
0.001986244932
36.28546396
19.24543714
8.701816979
3.231539798
0.881992719
0.1689075959
0.04520553392
0.033733767
0.0302048132
0.02712071363
0.02399811764
0.02090416255
0.01793360447
0.01520007323
0.01277519657
0.01069797449
0.008967920273
0.007562909025
0.006451800417
0.005593539714
0.004943848958
0.004460297574
0.004102977337
0.003836914288
0.003634773575
0.003477136901
0.00335103763
0.003248123115
0.003162909786
0.003091552016
0.003031290951
0.002980046827
0.002936220865
0.002898562061
0.002866083815
0.002837991124
0.002813607989
0.002792395032
0.002773876552
0.002757685878
0.002743482473
0.002731018332
0.002720097963
0.002710482677
0.002702037666
0.002694497032
0.002687872589
0.002682181265
0.002677397137
0.002673201507
0.002669585733
0.00266606393
0.002662667603
0.002658867499
0.002654273239
0.002645762704
0.002628300435
0.002583304288
0.002439804542
0.001875837222
43.75187114
25.73526679
13.38761185
6.250419151
2.469964756
0.6317191585
0.09378660341
0.04187283148
0.03602054853
0.03247215015
0.02901530633
0.02549834982
0.02204673483
0.01879473244
0.01585043603
0.01327510831
0.01108787811
0.009277268039
0.007816543144
0.006664396244
0.005773676572
0.005097641242
0.004592279486
0.004216237961
0.003933706382
0.003717165315
0.003547024953
0.003410209967
0.003298199316
0.003205219503
0.003127264881
0.003061397783
0.003005393565
0.002957491886
0.002916305164
0.002880751923
0.002849959909
0.002823235367
0.00280001425
0.002779769524
0.002762104138
0.002746633456
0.002733115421
0.002721266659
0.002710896919
0.002701733252
0.002693698102
0.002686595276
0.00268041858
0.002675044598
0.002670585573
0.00266645329
0.002662597269
0.002657647575
0.002651421812
0.002640205475
0.002618074956
0.002562813977
0.002389807814
0.001792189459
51.10098724
32.82724395
18.95081691
10.01605469
4.717698659
1.565032019
0.2562019572
0.05591585228
0.04163556875
0.0374310888
0.03374521067
0.02997886553
0.02619533493
0.02253600504
0.01913972516
0.01610184193
0.01346928012
0.01124768855
0.009418826493
0.007945606144
0.006782756956
0.005882327795
0.005197948202
0.004684048187
0.004298533228
0.004006415668
0.003780774129
0.003602095348
0.003457723105
0.003339004794
0.003240142652
0.003157046292
0.003086671671
0.003026726273
0.002975378204
0.00293123857
0.002893159845
0.002860197004
0.002831606188
0.002806752989
0.002785103733
0.002766196644
0.002749681774
0.002735204254
0.002722539192
0.002711419743
0.002701713323
0.002693167234
0.002685797416
0.002679194023
0.002673430987
0.002668034625
0.002663217718
0.002657358692
0.002649118417
0.002634720626
0.00260719565
0.002540777091
0.00234039718
0.001735090181
57.99594721
40.08616602
25.08836931
14.40307372
7.405686568
2.982543035
0.6288881367
0.09386025287
0.04788560635
0.04169053589
0.03783842789
0.03400737298
0.03007122262
0.02616976145
0.02245367679
0.01904467071
0.01602134082
0.01341586333
0.01122603104
0.009424022236
0.007971022185
0.00682342176
0.005934075223
0.00525493891
0.004742011364
0.004354882227
0.00405876748
0.003827976869
0.003644110212
0.003494559911
0.003371028884
0.003267748817
0.003180710383
0.003106812038
0.003043781832
0.002989759727
0.00294331704
0.002903237142
0.002868547837
0.002838452805
0.002812279158
0.002789452385
0.002769534626
0.002752073316
0.002736892094
0.002723609694
0.002712032516
0.002701825757
0.002692959417
0.002684983406
0.002678080811
0.002671462598
0.002665142988
0.002657544659
0.002647054197
0.002628980109
0.002595217446
0.002516256115
0.002287605389
0.001673324943
64.57351068
47.28493757
31.49324366
19.22427705
10.50283096
4.650247675
1.20201316
0.1835878486
0.05734396406
0.04533701876
0.04115455089
0.03737930592
0.03346380905
0.02947931743
0.02558112084
0.02191378426
0.01858490872
0.0156538894
0.01313955908
0.01103054266
0.009296327207
0.007897658879
0.006790672185
0.005929428644
0.005269500348
0.004767966519
0.004385836369
0.00409097711
0.003858963008
0.003672668949
0.003520314501
0.003393928564
0.003287904072
0.003198222362
0.003121922738
0.003056725643
0.003000828778
0.002952707784
0.002911146875
0.002875127937
0.002843825107
0.002816527937
0.002792784263
0.00277205538
0.00275407424
0.002738292615
0.002724587023
0.002712483523
0.00270196425
0.002692489149
0.002684218295
0.002676191153
0.002668314397
0.002658444557
0.002645485542
0.002623469226
0.002583212096
0.00249196347
0.002235966148
0.001609429648
70.7081332
54.53599689
38.39866115
24.68305897
14.06189641
6.527376365
2.010385384
0.377168536
0.08077808433
0.04919007189
0.04358880321
0.03993455843
0.03619629997
0.0322731009
0.02832615564
0.02451772474
0.02097961745
0.0178006789
0.0150250568
0.01265430273
0.01066977196
0.009040760015
0.007725867049
0.006683297496
0.005869477258
0.005242363803
0.00476180524
0.004391652163
0.004102782286
0.003873272213
0.003687411538
0.003534504408
0.003407058304
0.003299841572
0.003208989656
0.003131562957
0.00306525531
0.003008246601
0.002959077367
0.002916511622
0.002879571287
0.002847448368
0.002819568709
0.002795236891
0.002774097251
0.002755477716
0.002739327623
0.0027250822
0.002712730404
0.002701567979
0.002691690359
0.002681997318
0.002672269507
0.002660072853
0.002643884193
0.002617268066
0.002569554984
0.002464576864
0.002178934083
0.001544970063
76.89925912
62.30868753
46.05520844
30.69742535
17.70127785
8.202939399
2.866481025
0.7088233921
0.1440939666
0.05663172342
0.04527460529
0.04146135407
0.03801340682
0.0343409126
0.03050681877
0.02668964267
0.02305294812
0.01971943727
0.01675150531
0.01417533191
0.01198990596
0.01016909124
0.008675783156
0.0074699773
0.006511943862
0.005761143004
0.005178321688
0.004726827687
0.004374490207
0.004095772479
0.003871847544
0.00368903253
0.003537707588
0.003411094656
0.003304271223
0.003213465633
0.003135877001
0.003069225777
0.003011836534
0.002962203595
0.002919238256
0.002881928257
0.002849544913
0.00282125809
0.002796663597
0.002775021457
0.002756249922
0.002739689316
0.002725310776
0.00271224554
0.002700533415
0.002688880359
0.002676941929
0.002661958103
0.002642082382
0.002610087643
0.00255378708
0.002433102174
0.00211618062
0.001481204165
83.36947197
70.22614829
53.61085794
36.09606207
20.24523901
9.0992047
3.534155279
1.193656034
0.2974318354
0.07782685167
0.04736294433
0.04191840646
0.0387220402
0.03546429761
0.03192456528
0.028255468
0.02465633624
0.02126906145
0.0181896746
0.01548374861
0.01315982205
0.01119751278
0.009567767151
0.008232522459
0.007153769506
0.006294094748
0.005615954337
0.005084012232
0.004666337971
0.004335803324
0.004071043592
0.003855927486
0.003678750834
0.003531077777
0.003406932296
0.003301690692
0.003211914883
0.003134989674
0.003068854045
0.003011725665
0.002962360144
0.002919515113
0.002882304528
0.002849823246
0.002821582852
0.002796778978
0.002775260085
0.002756174061
0.002739552279
0.002724324781
0.002710585801
0.002696730226
0.002682328641
0.002664323156
0.002640580591
0.002603121503
0.002538415208
0.002402771046
0.002056722364
0.001419197757
88.68489821
76.69638671
58.90001144
38.39077577
20.29904261
9.039820434
4.00012655
1.785904183
0.5804178553
0.1421046922
0.05436578571
0.04188665741
0.0385489642
0.03564500186
0.03254106949
0.02918197262
0.02574011752
0.02240175883
0.01930524887
0.01653861028
0.01413108103
0.0120791473
0.01035631996
0.008928212875
0.007758737938
0.006811909163
0.006053094023
0.005449287854
0.00496971105
0.004587874189
0.00428139766
0.004032462025
0.003828018526
0.003658141504
0.003515665788
0.003395178789
0.003292673964
0.003204987016
0.003129649542
0.003064692779
0.003008624538
0.002959889961
0.002917621617
0.002880719835
0.002848660547
0.002820523426
0.002796059038
0.002774285627
0.002755244435
0.002737700781
0.002721750592
0.002705447829
0.002688315298
0.002666934512
0.002638913787
0.002595407992
0.002521636797
0.002370038693
0.001995150771
0.001358642153
93.00414731
80.64566764
59.46394236
36.05596797
17.74926461
8.469933586
4.45723538
2.39092252
1.046449722
0.3002269334
0.08447860769
0.04489642259
0.03758158159
0.03506951847
0.03242039114
0.02948599903
0.02635016959
0.02317425226
0.02013612702
0.01736482663
0.01492180295
0.01281795681
0.01103643215
0.009545932298
0.008311230948
0.007297789132
0.006473818713
0.005808429676
0.005273409405
0.00484346824
0.0044964634
0.004214197544
0.003982206872
0.003789683671
0.00362859134
0.003492548609
0.003376984867
0.003278253533
0.003193514477
0.003120486027
0.003057388038
0.003002606931
0.002955098163
0.002913636427
0.002877618731
0.002845972984
0.002818392886
0.002793799348
0.002772172614
0.002752140467
0.002733727308
0.002714656301
0.00269443978
0.002669165363
0.002636199709
0.002585587463
0.002500944991
0.002330443098
0.001923963002
0.001299337425
98.82168631
79.2652849
51.84318164
27.9528278
14.82624394
8.481426289
5.177120914
3.136471523
1.690710039
0.6484645702
0.1889340697
0.06602548229
0.03986310982
0.03379110068
0.03165715454
0.02930704447
0.02660431066
0.02370465907
0.02080391898
0.01807674826
0.0156256923
0.01348773773
0.01165907794
0.01011539586
0.008825173284
0.007755683806
0.006875794362
0.006156726442
0.005572161209
0.005097945327
0.004712566201
0.004397794022
0.004138727299
0.003923866605
0.003744123305
0.0035925042
0.003463820199
0.003353922608
0.003259715218
0.003178445397
0.00310818998
0.003047247247
0.002994392753
0.002948280618
0.002908178689
0.002872892849
0.002842117048
0.00281458161
0.002790247888
0.002767553591
0.002746456615
0.002724415943
0.002700972869
0.002671708265
0.002633763764
0.002576185301
0.002481307196
0.002293643877
0.001859529828
0.001242089794
96.6843013
67.79637601
42.14703016
24.7712772
14.90406059
9.494214096
6.308285283
4.116195461
2.511596795
1.316629846
0.4839600379
0.1494594519
0.05794116931
0.03613441954
0.03055141834
0.02859214262
0.02649062066
0.02403450515
0.0213812531
0.01876550309
0.01633615802
0.01417161145
0.01229188636
0.01068857256
0.009336090439
0.008206143566
0.00726941993
0.00649824882
0.005866242572
0.005349478046
0.004927109332
0.004580836318
0.004295475478
0.004058685105
0.003860530376
0.00369355732
0.003551909949
0.00343091426
0.003327168339
0.003237721083
0.003160468496
0.003093389799
0.003035172286
0.002984299595
0.002940028736
0.002901023791
0.002866945178
0.002836351011
0.002809196293
0.002783679421
0.002759676384
0.002734423676
0.002707409339
0.002673802539
0.002630675121
0.002565968155
0.002460716881
0.002255991851
0.001794732035
0.001186250965
89.60355198
62.24990135
40.17568288
25.41357397
16.63618352
11.37529986
7.880942435
5.406861281
3.576450401
2.193139745
1.144393855
0.4225959462
0.1340648424
0.05337786491
0.03314218054
0.02782649292
0.0259566823
0.02402138269
0.02180114595
0.0194129821
0.01707635684
0.01491349245
0.01298738305
0.01131511776
0.009889177897