/*--------------------------------*- C++ -*----------------------------------*\
  =========                 |
  \\      /  F ield         | OpenFOAM: The Open Source CFD Toolbox
   \\    /   O peration     | Website:  https://openfoam.org
    \\  /    A nd           | Version:  10
     \\/     M anipulation  |
\*---------------------------------------------------------------------------*/
FoamFile
{
    format      ascii;
    class       volScalarField;
    location    "0.02498436188";
    object      O2;
}
// * * * * * * * * * * * * * * * * * * * * * * * * * * * * * * * * * * * * * //

dimensions      [0 0 0 0 0 0 0];

internalField   nonuniform List<scalar> 
5170
(
0.1965999906
0.1965999906
0.1965999907
0.1965999914
0.1965999994
0.1965999813
0.1965999813
0.1965999815
0.1965999827
0.1965999893
0.1965999721
0.1965999721
0.1965999725
0.1965999738
0.1965999793
0.196599963
0.1965999631
0.1965999635
0.1965999649
0.1965999693
0.196599954
0.1965999541
0.1965999546
0.196599956
0.1965999592
0.1965999451
0.1965999453
0.1965999457
0.1965999471
0.1965999492
0.1965999364
0.1965999365
0.196599937
0.1965999381
0.1965999391
0.1965999277
0.1965999278
0.1965999283
0.1965999291
0.1965999291
0.1965999191
0.1965999192
0.1965999196
0.19659992
0.196599919
0.1965999105
0.1965999107
0.1965999109
0.1965999109
0.1965999088
0.196599902
0.1965999021
0.1965999023
0.1965999017
0.1965998986
0.1965998936
0.1965998936
0.1965998936
0.1965998925
0.1965998884
0.1965998852
0.1965998852
0.196599885
0.1965998832
0.1965998781
0.1965998768
0.1965998768
0.1965998764
0.1965998739
0.1965998679
0.1965998685
0.1965998684
0.1965998677
0.1965998645
0.1965998576
0.1965998602
0.19659986
0.196599859
0.196599855
0.1965998473
0.1965998519
0.1965998517
0.1965998503
0.1965998455
0.1965998371
0.1965998437
0.1965998433
0.1965998416
0.196599836
0.1965998269
0.1965998355
0.1965998349
0.1965998319
0.1965998195
0.1965997888
0.1965998169
0.1965997685
0.1965993585
0.1965965209
0.1965838057
0.05312800109
0.05314339921
0.05314563872
0.0531566174
0.05316266575
0.05263675038
0.05270898397
0.05270818872
0.05271923971
0.0526588915
0.05242520299
0.05248896237
0.05248580821
0.05248171937
0.05242243539
0.05233726762
0.05238034673
0.05237753344
0.0523645685
0.05232539287
0.05229515604
0.05232345677
0.05232106602
0.05230812203
0.05228031304
0.05227360305
0.0522923922
0.05229217407
0.05227822506
0.0522541211
0.05224922546
0.0522722473
0.0522718478
0.05225115858
0.05219872898
0.05220844263
0.05224583576
0.05224786936
0.05221946654
0.05213251936
0.05214771414
0.05221055313
0.05221365579
0.05216493581
0.0520801031
0.05209170934
0.05214460021
0.05215834335
0.05211300375
0.05203525921
0.05204929277
0.05209481833
0.05211012307
0.05207009053
0.05200351112
0.05201957893
0.05206165329
0.05207161763
0.0520320913
0.05197362846
0.05199168865
0.05203102247
0.0520363683
0.05199833381
0.05194593538
0.05196445579
0.05200179445
0.05200455658
0.05196896533
0.05192176308
0.0519393205
0.05197454422
0.05197608658
0.05194352464
0.05190193386
0.05191751863
0.05194955233
0.05195043726
0.05192127464
0.05188557249
0.05189925801
0.05192657205
0.05192692058
0.05190181664
0.05187182958
0.05188451924
0.05190660062
0.05190632031
0.05188533858
0.05186188907
0.05184674421
0.05188388828
0.05188907358
0.05187629143
0.0518645057
0.04862818792
0.05124594939
0.05190750951
0.05219678496
0.05265682506
0.1965994262
0.1965967517
0.1965524717
0.1958934667
0.1871361314
0.196597647
0.1965851731
0.1964207218
0.1947182818
0.1822355113
0.19659254
0.1965556816
0.1961571707
0.1930796133
0.1784545878
0.1965807061
0.196494561
0.1957106758
0.1910126319
0.1752674519
0.1965563123
0.1963814258
0.195020887
0.1886210581
0.1725323688
0.1965081007
0.196175866
0.1940032633
0.186052803
0.1700366435
0.1964172386
0.1958234479
0.1926209767
0.1833906588
0.167541768
0.1962552506
0.1952641227
0.1908850616
0.1806723971
0.1650035266
0.195975834
0.1944209879
0.1888230273
0.1779342159
0.1624917895
0.1955074072
0.1932185702
0.1864766494
0.1751574789
0.1599811509
0.1947355951
0.191563679
0.1838668462
0.1723246212
0.1574564169
0.1934430058
0.1893952229
0.181039511
0.1694017125
0.1548751647
0.1913415981
0.1866944415
0.1779730353
0.1663496219
0.1521805973
0.1884753678
0.1835214274
0.1746719271
0.163170516
0.1493973015
0.1846158473
0.1797486482
0.1710434834
0.1598039647
0.1464795
0.1799964029
0.1754175878
0.1670268202
0.1561545554
0.1433400879
0.1745218927
0.1703120267
0.1623903078
0.1520400415
0.1398494573
0.1680390925
0.1643000828
0.1570267955
0.147335797
0.1358182466
0.1610615146
0.1577581482
0.1511283612
0.1421011775
0.1312683519
0.1537731335
0.1508857159
0.1450559334
0.1371525273
0.1278181102
0.1469249532
0.1447475944
0.1404414784
0.1348552542
0.1287002876
0.1433371975
0.1422957913
0.1402765214
0.1378027291
0.1353662452
0.1468148591
0.1465995818
0.146259684
0.1460248075
0.1461309326
0.1559244095
0.1560983726
0.1565557527
0.1573729773
0.1586286869
0.1673807491
0.1676693334
0.1683482393
0.1694196918
0.1708786095
0.1785934928
0.1788661264
0.1794865843
0.1804415637
0.1817124865
0.1876639013
0.1878843913
0.1883869874
0.189154327
0.1901642689
0.1949018973
0.1950725355
0.1954593778
0.1960470272
0.1968166553
0.2005480066
0.2006770466
0.200968337
0.2014097644
0.2019870943
0.2049122557
0.2050090412
0.205226843
0.2055566065
0.2059881149
0.208278238
0.2083509497
0.2085141768
0.2087613136
0.2090852313
0.2108812087
0.2109364026
0.2110600524
0.2112473531
0.2114933857
0.2129081415
0.2129507929
0.213046148
0.2131906694
0.2133809588
0.2145007164
0.2145344334
0.2146096522
0.2147236986
0.2148741955
0.2157622322
0.2157895648
0.2158503911
0.2159426249
0.2160645716
0.2167683112
0.2167910371
0.2168414815
0.2169179567
0.2170192239
0.2175771607
0.2175965146
0.2176393608
0.2177042878
0.2177903652
0.2182358595
0.2182526872
0.2182898515
0.2183461381
0.2184208256
0.2187828177
0.2187976944
0.2188304828
0.2188801169
0.2189460206
0.2192484111
0.2192617251
0.2192910244
0.2193353604
0.2193942599
0.2196554871
0.2196675053
0.2196939245
0.2197338937
0.2197870156
0.2200203082
0.2200312195
0.2200551898
0.2200914515
0.2201396653
0.2203539034
0.2203638491
0.22038569
0.2204187319
0.2204626812
0.2206634823
0.2206725735
0.2206925349
0.2207227372
0.2207629241
0.2209536853
0.220962014
0.2209803004
0.2210079732
0.2210448069
0.2212275291
0.2212351736
0.2212519584
0.2212773637
0.2213111905
0.2214870486
0.2214940769
0.2215095099
0.2215328738
0.221563992
0.2217336905
0.2217401622
0.2217543747
0.2217758952
0.2218045665
0.2219685575
0.2219745257
0.2219876336
0.2220074852
0.2220339404
0.2221925508
0.2221980622
0.2222101684
0.2222285065
0.2222529507
0.2224064678
0.2224115648
0.2224227615
0.2224397246
0.2224623415
0.2226108878
0.2226156074
0.2226259766
0.2226416887
0.2226626423
0.2228064906
0.2228108667
0.2228204821
0.2228350543
0.2228544919
0.2229938307
0.2229978934
0.2230068209
0.2230203527
0.223038406
0.2231734146
0.2231771908
0.2231854896
0.2231980701
0.2232148574
0.2233457037
0.2233492177
0.2233569409
0.2233686504
0.2233842783
0.223511116
0.2235143896
0.2235215852
0.223532496
0.2235470603
0.2236700382
0.2236730913
0.2236798025
0.2236899802
0.223703568
0.2238228259
0.2238256762
0.2238319423
0.2238414458
0.2238541353
0.2239698235
0.2239724874
0.2239783438
0.2239872271
0.22399909
0.2241113446
0.2241138366
0.2241193154
0.2241276268
0.2241387274
0.2242477103
0.2242500439
0.2242551747
0.2242629589
0.2242733566
0.2243791721
0.2243813592
0.2243861682
0.2243934648
0.2244032123
0.2245060175
0.2245080694
0.2245125816
0.2245194283
0.2245285759
0.2246284075
0.2246303339
0.2246345704
0.2246409992
0.2246495893
0.2247466718
0.2247484823
0.2247524638
0.2247585063
0.2247665811
0.2248607894
0.2248624914
0.2248662348
0.2248719162
0.2248795091
0.224971109
0.2249727115
0.224976236
0.2249815855
0.2249887355
0.225075912
0.2250774215
0.2250807415
0.2250857809
0.2250925168
0.2251659138
0.2251673477
0.2251705018
0.2251752898
0.2251816902
0.1620306624
0.1606600303
0.1595370719
0.1582102407
0.1568084496
0.1552869839
0.1535615606
0.1516703077
0.1497567288
0.1477915482
0.145762604
0.1436347838
0.1413514349
0.1389949155
0.1365052594
0.1338080951
0.1308143115
0.1272472407
0.1231530065
0.1210148636
0.1245845725
0.1339744955
0.1464676445
0.1596894052
0.1720120544
0.1826855117
0.1909282505
0.1973976481
0.2024237618
0.2063158557
0.2093326687
0.2116826007
0.2135283801
0.2149916821
0.2161605129
0.2170995109
0.2178591063
0.2184808555
0.2189992735
0.2194420509
0.2198302513
0.2201789927
0.220498586
0.2207957913
0.2210749562
0.2213388956
0.2215894915
0.2218280708
0.222055636
0.2222730039
0.2224809013
0.2226798418
0.222870451
0.2230532321
0.2232286468
0.2233971178
0.2235590284
0.2237147356
0.2238645665
0.2240088432
0.2241478551
0.2242819075
0.2244112295
0.2245361006
0.2246566562
0.2247732247
0.2248857568
0.2249946193
0.2250980603
0.2251869582
0.1115132197
0.02503404573
0.05084532052
0.07100959362
0.1132046952
0.1214562713
0.05512848589
0.03121421952
0.07700147509
0.1367131271
0.1259387426
0.07121421473
0.01913305001
0.0687329046
0.1404907862
0.1281832111
0.07796244031
0.01936609558
0.05334142656
0.1233734125
0.1293427837
0.08292984771
0.02949826309
0.03723866683
0.09889053672
0.1298485495
0.08699755774
0.03900919535
0.02486328601
0.07579314496
0.1298363514
0.09006404101
0.04568672441
0.01777479522
0.05526425825
0.1294155484
0.09236549591
0.05116155081
0.01611661738
0.03940577617
0.1287996178
0.09413843754
0.05576137024
0.01973903155
0.02818186831
0.1279717183
0.09537036409
0.05925126754
0.02330995944
0.02012984133
0.1269396706
0.09604802824
0.0616997028
0.02646350237
0.0149420352
0.125692198
0.09631203912
0.06370817444
0.02993188949
0.01242121595
0.1242175202
0.09629636928
0.06565057065
0.03409831758
0.01349342416
0.122651497
0.09617169984
0.06732556131
0.03756258466
0.0153355547
0.1209313753
0.0958019248
0.06854258197
0.04023289725
0.01715662914
0.1189869069
0.09513780765
0.06935032631
0.04248203362
0.01919329936
0.1168115882
0.09430391088
0.06995982917
0.04442183161
0.02131177835
0.1140224865
0.09257575454
0.06916440184
0.04431970458
0.02175656743
0.1106588151
0.09001007782
0.06710441576
0.0424503352
0.02101217171
0.1106490641
0.09461119041
0.07833991464
0.06033359286
0.03500162648
0.1183235326
0.1108374544
0.1066526037
0.1068765708
0.1127122848
0.1316923329
0.1309460848
0.1337681419
0.14049728
0.1508621976
0.1466567467
0.1493096409
0.154524439
0.1619714965
0.1710038483
0.1609198837
0.1645190986
0.1696994758
0.1760546609
0.1830450114
0.1733867634
0.1767156012
0.1810553989
0.1860496134
0.1913301241
0.1838879923
0.1865900413
0.1899541441
0.1937157966
0.1976278282
0.1918790229
0.1939631295
0.1965136922
0.19933926
0.2022700179
0.1981262314
0.1997031958
0.2016207241
0.2037427413
0.2059514961
0.2029760702
0.2041635182
0.2056055708
0.2072063003
0.2088833784
0.2067345443
0.2076308344
0.2087206872
0.2099368719
0.2112216139
0.2096524283
0.2103344365
0.2111657294
0.2120994093
0.2130948638
0.2119303086
0.2124565556
0.213099618
0.2138267934
0.2146094267
0.2137241581
0.2141380411
0.2146447141
0.2152212484
0.2158472637
0.2151501719
0.2154830436
0.2158907212
0.2163569672
0.2168671273
0.2162921634
0.2165662827
0.2169015585
0.2172863695
0.2177100549
0.2172116701
0.2174427414
0.2177245026
0.2180485503
0.2184070328
0.2179568427
0.2181558816
0.2183975542
0.2186757116
0.2189844923
0.2185675781
0.2187422305
0.2189533184
0.2191962705
0.2194666325
0.2190772316
0.2192327469
0.2194199222
0.2196352845
0.2198753747
0.2195127283
0.2196526977
0.2198206162
0.2200137758
0.2202294231
0.2198946587
0.2200215755
0.2201735062
0.2203482811
0.2205436536
0.2202378658
0.2203535228
0.2204918125
0.2206509515
0.2208290664
0.2205525044
0.2206582586
0.2207846573
0.2209302036
0.2210933071
0.220845244
0.2209421805
0.2210580559
0.2211915933
0.2213414251
0.2211203722
0.2212093977
0.2213158663
0.2214386763
0.2215766404
0.2213806585
0.2214625543
0.2215605601
0.2216737176
0.2218009893
0.2216279454
0.2217033953
0.2217937539
0.2218981829
0.2220157715
0.2218635247
0.2219331338
0.2220165613
0.2221130706
0.2222218597
0.2220883668
0.2221526734
0.222229804
0.2223191097
0.2224198824
0.2223032604
0.2223627453
0.2224341449
0.2225168863
0.2226103427
0.2225089068
0.2225640015
0.2226301773
0.2227069271
0.2227936956
0.222705796
0.2227568878
0.2228182969
0.2228895733
0.2229702235
0.2228945342
0.2229419716
0.2229990246
0.223065293
0.2231403379
0.2230756059
0.2231197016
0.2231727676
0.2232344473
0.2233043497
0.2232494564
0.2232904918
0.2233399031
0.223397372
0.2234625496
0.2234164941
0.2234547232
0.22350078
0.2235543803
0.2236152119
0.2235770895
0.2236127414
0.223655715
0.2237057559
0.2237625844
0.2237315888
0.2237648715
0.2238050086
0.2238517719
0.2239049105
0.2238803083
0.2239114097
0.2239489332
0.2239926738
0.2240424061
0.2240235619
0.2240526541
0.2240877684
0.2241287206
0.2241753079
0.2241616298
0.2241888669
0.2242217557
0.2242601299
0.2243038072
0.2242948114
0.2243203367
0.2243511706
0.2243871632
0.2244281496
0.2244233276
0.2244472681
0.2244761985
0.2245099835
0.2245484746
0.224547455
0.2245699322
0.2245971042
0.2246288481
0.2246650294
0.2246673196
0.2246884356
0.2247139709
0.224743814
0.2247778431
0.2247832488
0.2248031061
0.2248271271
0.2248552105
0.2248872461
0.2248951836
0.2249138627
0.2249364654
0.2249629004
0.2249930674
0.225003496
0.2250210914
0.225042389
0.2250673053
0.2250957491
0.2251064246
0.2251230059
0.2251430817
0.2251665761
0.2251934067
0.2251949065
0.2252106692
0.225229758
0.2252521029
0.2252776279
0.2160573994
0.2290944957
0.22992623
0.2299866949
0.2299958408
0.229998386
0.2299993486
0.2299997452
0.22999991
0.2299999775
0.2300000046
0.2300000153
0.2300000196
0.2300000213
0.2300000219
0.2300000223
0.2300000224
0.2300000225
0.2300000226
0.2300000227
0.2300000227
0.2300000228
0.2300000228
0.2300000228
0.2300000228
0.2300000228
0.2300000228
0.2300000228
0.2300000229
0.2300000229
0.2300000229
0.2300000229
0.2300000229
0.2300000229
0.2300000229
0.2300000229
0.2300000229
0.2300000229
0.2300000229
0.2300000229
0.2300000229
0.2300000229
0.230000023
0.230000023
0.230000023
0.230000023
0.230000023
0.230000023
0.230000023
0.230000023
0.230000023
0.230000023
0.230000023
0.230000023
0.230000023
0.230000023
0.2300000231
0.2300000233
0.2300000237
0.2300000243
0.2062070005
0.2274667068
0.2297880835
0.2299687755
0.2299913038
0.2299966317
0.2299985238
0.2299993395
0.229999715
0.2299998891
0.2299999689
0.230000005
0.2300000213
0.2300000286
0.2300000319
0.2300000334
0.2300000342
0.2300000347
0.2300000351
0.2300000354
0.2300000356
0.2300000358
0.2300000359
0.230000036
0.230000036
0.2300000361
0.2300000361
0.2300000362
0.2300000362
0.2300000363
0.2300000363
0.2300000363
0.2300000364
0.2300000364
0.2300000364
0.2300000365
0.2300000365
0.2300000365
0.2300000365
0.2300000366
0.2300000366
0.2300000366
0.2300000366
0.2300000366
0.2300000367
0.2300000367
0.2300000367
0.2300000367
0.2300000367
0.2300000367
0.2300000368
0.2300000368
0.2300000368
0.2300000368
0.2300000368
0.2300000369
0.2300000372
0.230000038
0.2300000403
0.2300000429
0.2011351733
0.2259917249
0.2296765593
0.2299582098
0.2299892741
0.2299958443
0.229998055
0.229999021
0.2299995021
0.229999751
0.2299998803
0.2299999469
0.2299999807
0.2299999978
0.2300000062
0.2300000104
0.2300000127
0.2300000142
0.2300000152
0.2300000159
0.2300000164
0.2300000167
0.2300000169
0.2300000171
0.2300000172
0.2300000173
0.2300000175
0.2300000176
0.2300000177
0.2300000178
0.2300000178
0.2300000179
0.230000018
0.2300000181
0.2300000181
0.2300000182
0.2300000182
0.2300000183
0.2300000183
0.2300000184
0.2300000184
0.2300000185
0.2300000185
0.2300000185
0.2300000186
0.2300000186
0.2300000186
0.2300000187
0.2300000187
0.2300000187
0.2300000188
0.2300000188
0.2300000188
0.2300000188
0.2300000189
0.230000019
0.2300000192
0.23000002
0.2300000214
0.2300000224
0.1851802163
0.2197579846
0.2290465054
0.229927886
0.229987108
0.229995471
0.2299978165
0.2299988076
0.2299993182
0.229999602
0.2299997644
0.2299998576
0.2299999106
0.2299999402
0.2299999564
0.2299999651
0.2299999699
0.2299999729
0.2299999748
0.229999976
0.2299999768
0.2299999773
0.2299999777
0.2299999779
0.2299999781
0.2299999783
0.2299999785
0.2299999786
0.2299999788
0.2299999789
0.229999979
0.2299999791
0.2299999792
0.2299999793
0.2299999794
0.2299999795
0.2299999796
0.2299999797
0.2299999797
0.2299999798
0.2299999799
0.2299999799
0.22999998
0.22999998
0.2299999801
0.2299999801
0.2299999801
0.2299999802
0.2299999802
0.2299999803
0.2299999803
0.2299999803
0.2299999803
0.2299999804
0.2299999804
0.2299999805
0.2299999806
0.2299999806
0.2299999802
0.2299999792
0.16386426
0.208213375
0.226171998
0.2296878458
0.229968552
0.2299927972
0.2299971048
0.2299984909
0.2299991194
0.2299994555
0.2299996503
0.2299997671
0.2299998377
0.2299998801
0.2299999052
0.2299999196
0.229999928
0.229999933
0.2299999361
0.2299999379
0.229999939
0.2299999397
0.2299999401
0.2299999404
0.2299999407
0.2299999409
0.2299999411
0.2299999412
0.2299999414
0.2299999416
0.2299999417
0.2299999418
0.2299999419
0.229999942
0.2299999421
0.2299999422
0.2299999423
0.2299999424
0.2299999425
0.2299999425
0.2299999426
0.2299999427
0.2299999427
0.2299999428
0.2299999428
0.2299999429
0.2299999429
0.229999943
0.229999943
0.229999943
0.2299999431
0.2299999431
0.2299999431
0.2299999432
0.2299999432
0.2299999432
0.2299999432
0.2299999428
0.2299999416
0.2299999401
0.1399440724
0.1895922146
0.2180339454
0.2281492036
0.2298437166
0.2299793878
0.229994484
0.2299977022
0.229998798
0.2299992872
0.2299995426
0.2299996888
0.229999777
0.2299998314
0.2299998649
0.2299998853
0.2299998976
0.2299999051
0.2299999096
0.2299999123
0.2299999138
0.2299999147
0.2299999152
0.2299999156
0.2299999159
0.2299999161
0.2299999163
0.2299999165
0.2299999166
0.2299999168
0.2299999169
0.229999917
0.2299999171
0.2299999172
0.2299999173
0.2299999174
0.2299999175
0.2299999176
0.2299999177
0.2299999177
0.2299999178
0.2299999179
0.2299999179
0.229999918
0.229999918
0.2299999181
0.2299999181
0.2299999182
0.2299999182
0.2299999183
0.2299999183
0.2299999183
0.2299999184
0.2299999184
0.2299999184
0.2299999184
0.2299999184
0.2299999181
0.2299999171
0.2299999162
0.1175002012
0.1698403053
0.2045862847
0.2229120497
0.2290472616
0.2299150414
0.2299860481
0.2299957474
0.2299981494
0.2299990183
0.2299994075
0.2299996081
0.2299997221
0.229999791
0.2299998339
0.2299998608
0.2299998776
0.229999888
0.2299998944
0.2299998982
0.2299999004
0.2299999016
0.2299999023
0.2299999028
0.2299999031
0.2299999033
0.2299999035
0.2299999037
0.2299999038
0.229999904
0.2299999041
0.2299999042
0.2299999043
0.2299999044
0.2299999045
0.2299999046
0.2299999047
0.2299999048
0.2299999049
0.229999905
0.229999905
0.2299999051
0.2299999051
0.2299999052
0.2299999053
0.2299999053
0.2299999054
0.2299999054
0.2299999055
0.2299999055
0.2299999055
0.2299999056
0.2299999056
0.2299999057
0.2299999057
0.2299999057
0.2299999058
0.2299999056
0.2299999053
0.2299999049
0.09637711553
0.1503644249
0.1881545897
0.2126501497
0.2257081589
0.2295516695
0.2299542897
0.2299905664
0.2299967699
0.2299985259
0.2299991947
0.2299994998
0.2299996585
0.2299997497
0.2299998054
0.2299998404
0.2299998626
0.2299998766
0.2299998853
0.2299998907
0.2299998938
0.2299998956
0.2299998966
0.2299998972
0.2299998976
0.2299998979
0.2299998981
0.2299998983
0.2299998984
0.2299998986
0.2299998987
0.2299998988
0.2299998989
0.229999899
0.2299998991
0.2299998992
0.2299998993
0.2299998994
0.2299998995
0.2299998996
0.2299998996
0.2299998997
0.2299998998
0.2299998998
0.2299998999
0.2299998999
0.2299999
0.2299999
0.2299999001
0.2299999001
0.2299999002
0.2299999002
0.2299999003
0.2299999003
0.2299999004
0.2299999004
0.2299999005
0.2299999006
0.2299999007
0.2299999006
0.07679119761
0.132116157
0.1725190545
0.199757193
0.2178355443
0.2278000602
0.2298166594
0.2299756985
0.2299937212
0.2299976036
0.229998843
0.229999339
0.2299995725
0.229999698
0.2299997722
0.2299998184
0.2299998478
0.2299998665
0.2299998783
0.2299998857
0.2299998901
0.2299998926
0.2299998941
0.2299998949
0.2299998955
0.2299998958
0.2299998961
0.2299998963
0.2299998964
0.2299998966
0.2299998967
0.2299998969
0.229999897
0.2299998971
0.2299998972
0.2299998973
0.2299998974
0.2299998975
0.2299998976
0.2299998976
0.2299998977
0.2299998978
0.2299998978
0.2299998979
0.229999898
0.229999898
0.2299998981
0.2299998981
0.2299998982
0.2299998982
0.2299998983
0.2299998983
0.2299998984
0.2299998984
0.2299998985
0.2299998986
0.2299998987
0.2299998989
0.2299998991
0.2299998993
0.05908006913
0.1137685666
0.1570552579
0.1875613555
0.2086354087
0.2232633223
0.2292384001
0.229933696
0.2299875554
0.2299960569
0.2299983107
0.2299991096
0.2299994538
0.2299996284
0.2299997285
0.2299997903
0.2299998296
0.2299998548
0.2299998707
0.2299998807
0.2299998868
0.2299998905
0.2299998926
0.2299998938
0.2299998945
0.229999895
0.2299998953
0.2299998956
0.2299998958
0.2299998959
0.2299998961
0.2299998962
0.2299998964
0.2299998965
0.2299998966
0.2299998967
0.2299998968
0.2299998969
0.229999897
0.229999897
0.2299998971
0.2299998972
0.2299998972
0.2299998973
0.2299998974
0.2299998974
0.2299998975
0.2299998975
0.2299998976
0.2299998976
0.2299998977
0.2299998977
0.2299998978
0.2299998978
0.2299998979
0.229999898
0.2299998982
0.2299998985
0.2299998987
0.2299998989
0.04439516079
0.09518968468
0.1406252068
0.1744928032
0.1989859837
0.2171625948
0.2277357312
0.2298113615
0.2299748416
0.2299935706
0.2299975625
0.229998804
0.2299992975
0.2299995362
0.2299996704
0.2299997528
0.2299998054
0.2299998392
0.2299998609
0.2299998746
0.229999883
0.2299998881
0.2299998911
0.2299998929
0.2299998939
0.2299998946
0.229999895
0.2299998953
0.2299998955
0.2299998957
0.2299998959
0.229999896
0.2299998961
0.2299998963
0.2299998964
0.2299998965
0.2299998966
0.2299998967
0.2299998968
0.2299998969
0.2299998969
0.229999897
0.2299998971
0.2299998972
0.2299998972
0.2299998973
0.2299998973
0.2299998974
0.2299998974
0.2299998975
0.2299998975
0.2299998976
0.2299998977
0.2299998977
0.2299998978
0.2299998979
0.2299998981
0.2299998984
0.2299998987
0.2299998988
0.03273885021
0.07811242682
0.1241343624
0.1613051523
0.1895895507
0.2109615604
0.2250470794
0.2295019479
0.2299458265
0.2299893154
0.2299965174
0.229998413
0.2299991008
0.2299994194
0.2299995958
0.2299997041
0.2299997736
0.2299998186
0.2299998477
0.2299998663
0.2299998779
0.229999885
0.2299998893
0.2299998918
0.2299998933
0.2299998941
0.2299998947
0.2299998951
0.2299998954
0.2299998956
0.2299998958
0.2299998959
0.2299998961
0.2299998962
0.2299998963
0.2299998964
0.2299998965
0.2299998966
0.2299998967
0.2299998968
0.2299998969
0.229999897
0.2299998971
0.2299998971
0.2299998972
0.2299998973
0.2299998973
0.2299998974
0.2299998974
0.2299998975
0.2299998975
0.2299998976
0.2299998976
0.2299998977
0.2299998978
0.2299998979
0.2299998981
0.2299998984
0.2299998987
0.2299998988
0.02399768259
0.06338057677
0.1086587541
0.1483310352
0.1804718992
0.2051148174
0.22200944
0.2288404648
0.2298906507
0.2299822548
0.2299950976
0.2299979311
0.229998863
0.2299992777
0.2299995046
0.2299996439
0.2299997338
0.2299997925
0.2299998308
0.2299998555
0.2299998712
0.2299998809
0.2299998868
0.2299998903
0.2299998924
0.2299998936
0.2299998944
0.2299998949
0.2299998952
0.2299998955
0.2299998957
0.2299998959
0.229999896
0.2299998962
0.2299998963
0.2299998964
0.2299998965
0.2299998966
0.2299998967
0.2299998968
0.2299998969
0.229999897
0.2299998971
0.2299998971
0.2299998972
0.2299998973
0.2299998973
0.2299998974
0.2299998974
0.2299998975
0.2299998975
0.2299998976
0.2299998977
0.2299998977
0.2299998978
0.229999898
0.2299998982
0.2299998985
0.2299998987
0.2299998988
0.0177177383
0.0507660923
0.09439469309
0.1359687899
0.1719127694
0.1999836684
0.2190633713
0.2277739415
0.2297848641
0.229969495
0.2299928605
0.2299972608
0.2299985577
0.2299991036
0.2299993948
0.2299995719
0.229999686
0.2299997608
0.2299998101
0.2299998422
0.2299998628
0.2299998757
0.2299998836
0.2299998884
0.2299998913
0.229999893
0.229999894
0.2299998946
0.2299998951
0.2299998954
0.2299998956
0.2299998958
0.229999896
0.2299998961
0.2299998963
0.2299998964
0.2299998965
0.2299998966
0.2299998967
0.2299998968
0.2299998969
0.229999897
0.2299998971
0.2299998971
0.2299998972
0.2299998973
0.2299998973
0.2299998974
0.2299998974
0.2299998975
0.2299998976
0.2299998976
0.2299998977
0.2299998978
0.2299998979
0.229999898
0.2299998982
0.2299998985
0.2299998987
0.2299998988
0.01340690786
0.04036082345
0.08178054604
0.1251051964
0.1652826726
0.1970138836
0.2173122343
0.226598731
0.2295835046
0.2299423417
0.2299888803
0.2299962781
0.2299981568
0.2299988879
0.2299992633
0.2299994871
0.2299996302
0.2299997239
0.2299997859
0.2299998266
0.2299998528
0.2299998695
0.2299998798
0.2299998861
0.2299998899
0.2299998922
0.2299998935
0.2299998943
0.2299998949
0.2299998952
0.2299998955
0.2299998957
0.2299998959
0.2299998961
0.2299998962
0.2299998964
0.2299998965
0.2299998966
0.2299998967
0.2299998968
0.2299998969
0.229999897
0.2299998971
0.2299998971
0.2299998972
0.2299998973
0.2299998973
0.2299998974
0.2299998975
0.2299998975
0.2299998976
0.2299998976
0.2299998977
0.2299998978
0.2299998979
0.2299998981
0.2299998983
0.2299998986
0.2299998988
0.2299998988
0.01085546482
0.03234869403
0.07214418241
0.1179085841
0.1630512951
0.1976213093
0.2173940691
0.225926688
0.2292634162
0.2298834164
0.2299806029
0.2299946011
0.2299975759
0.2299986036
0.229999099
0.2299993846
0.2299995639
0.2299996806
0.2299997577
0.2299998084
0.2299998412
0.2299998622
0.2299998753
0.2299998834
0.2299998882
0.2299998912
0.2299998929
0.229999894
0.2299998947
0.2299998951
0.2299998954
0.2299998957
0.2299998959
0.229999896
0.2299998962
0.2299998963
0.2299998965
0.2299998966
0.2299998967
0.2299998968
0.2299998969
0.229999897
0.2299998971
0.2299998971
0.2299998972
0.2299998973
0.2299998974
0.2299998974
0.2299998975
0.2299998975
0.2299998976
0.2299998977
0.2299998977
0.2299998978
0.229999898
0.2299998981
0.2299998983
0.2299998986
0.2299998988
0.2299998988
0.01042051042
0.02954973658
0.06985784859
0.119424136
0.1690957063
0.2026140506
0.2191625484
0.2259981053
0.2288305673
0.2297589925
0.2299604284
0.2299909967
0.2299965448
0.2299981682
0.2299988694
0.2299992488
0.2299994786
0.2299996258
0.2299997225
0.229999786
0.2299998272
0.2299998535
0.22999987
0.2299998801
0.2299998863
0.22999989
0.2299998922
0.2299998936
0.2299998944
0.2299998949
0.2299998953
0.2299998956
0.2299998958
0.229999896
0.2299998962
0.2299998963
0.2299998965
0.2299998966
0.2299998967
0.2299998968
0.2299998969
0.229999897
0.2299998971
0.2299998971
0.2299998972
0.2299998973
0.2299998974
0.2299998974
0.2299998975
0.2299998976
0.2299998976
0.2299998977
0.2299998978
0.2299998979
0.229999898
0.2299998982
0.2299998984
0.2299998986
0.2299998988
0.2299998988
0.01223682113
0.03531397203
0.0811104405
0.1370898599
0.1842970834
0.2100215685
0.2214457601
0.2263061043
0.2284899215
0.2295140696
0.229898802
0.2299799935
0.2299940571
0.2299973411
0.2299984929
0.2299990425
0.2299993547
0.2299995485
0.2299996738
0.2299997554
0.2299998082
0.2299998419
0.2299998629
0.2299998759
0.2299998838
0.2299998885
0.2299998913
0.229999893
0.2299998941
0.2299998947
0.2299998952
0.2299998955
0.2299998957
0.2299998959
0.2299998961
0.2299998963
0.2299998964
0.2299998965
0.2299998967
0.2299998968
0.2299998969
0.229999897
0.2299998971
0.2299998971
0.2299998972
0.2299998973
0.2299998974
0.2299998974
0.2299998975
0.2299998976
0.2299998976
0.2299998977
0.2299998978
0.2299998979
0.229999898
0.2299998982
0.2299998984
0.2299998987
0.2299998989
0.2299998988
0.02067696302
0.05579977757
0.1089725569
0.1669723161
0.2000487199
0.2158346329
0.2230389832
0.2264283994
0.2281569458
0.2291423754
0.2297075397
0.2299331518
0.2299850572
0.2299951744
0.2299977389
0.2299986866
0.2299991555
0.229999428
0.2299995988
0.2299997086
0.2299997793
0.2299998242
0.2299998523
0.2299998696
0.22999988
0.2299998862
0.2299998899
0.2299998921
0.2299998934
0.2299998943
0.2299998948
0.2299998952
0.2299998955
0.2299998957
0.2299998959
0.2299998961
0.2299998962
0.2299998964
0.2299998965
0.2299998966
0.2299998967
0.2299998968
0.2299998969
0.229999897
0.2299998971
0.2299998972
0.2299998972
0.2299998973
0.2299998974
0.2299998974
0.2299998975
0.2299998976
0.2299998977
0.2299998978
0.229999898
0.2299998982
0.2299998984
0.2299998987
0.2299998989
0.2299998988
0.04594601583
0.09394408069
0.1562882479
0.1906794036
0.2092046458
0.2187127926
0.223583166
0.2262140571
0.2277417987
0.228701391
0.2293553605
0.2297718425
0.2299457357
0.2299873367
0.2299957617
0.229997966
0.2299988027
0.229999226
0.2299994751
0.2299996314
0.2299997312
0.2299997946
0.2299998343
0.2299998587
0.2299998734
0.2299998821
0.2299998873
0.2299998904
0.2299998923
0.2299998934
0.2299998941
0.2299998946
0.2299998949
0.2299998951
0.2299998954
0.2299998955
0.2299998957
0.2299998958
0.2299998959
0.2299998961
0.2299998962
0.2299998963
0.2299998964
0.2299998964
0.2299998965
0.2299998966
0.2299998967
0.2299998968
0.2299998968
0.2299998969
0.229999897
0.2299998971
0.2299998972
0.2299998973
0.2299998974
0.2299998976
0.2299998979
0.2299998981
0.2299998983
0.2299998982
0.1293666662
0.1586744234
0.1849352571
0.2026861394
0.2135077998
0.2198102009
0.2235184403
0.2257840298
0.2272385016
0.2282232624
0.2289243403
0.2294470657
0.2297993665
0.2299516738
0.2299885535
0.2299960896
0.2299980923
0.2299988675
0.2299992653
0.2299995013
0.2299996495
0.2299997437
0.229999803
0.2299998398
0.2299998621
0.2299998755
0.2299998835
0.2299998882
0.2299998909
0.2299998926
0.2299998935
0.2299998941
0.2299998945
0.2299998948
0.229999895
0.2299998952
0.2299998954
0.2299998955
0.2299998956
0.2299998958
0.2299998959
0.229999896
0.2299998961
0.2299998962
0.2299998962
0.2299998963
0.2299998964
0.2299998965
0.2299998965
0.2299998966
0.2299998967
0.2299998968
0.2299998969
0.229999897
0.2299998972
0.2299998974
0.2299998976
0.2299998978
0.229999898
0.2299998979
0.1652795624
0.1825032847
0.1972275652
0.208006918
0.2152806044
0.2200349581
0.2231451385
0.2252242016
0.2266603801
0.2276900406
0.2284545284
0.2290382656
0.2294955126
0.2298149323
0.2299556383
0.2299893987
0.2299962993
0.2299981655
0.2299988999
0.2299992833
0.229999513
0.2299996577
0.2299997495
0.2299998073
0.229999843
0.2299998646
0.2299998774
0.2299998849