/*--------------------------------*- C++ -*----------------------------------*\
  =========                 |
  \\      /  F ield         | OpenFOAM: The Open Source CFD Toolbox
   \\    /   O peration     | Website:  https://openfoam.org
    \\  /    A nd           | Version:  10
     \\/     M anipulation  |
\*---------------------------------------------------------------------------*/
FoamFile
{
    format      ascii;
    class       volScalarField;
    location    "0.02498436188";
    object      O_0;
}
// * * * * * * * * * * * * * * * * * * * * * * * * * * * * * * * * * * * * * //

dimensions      [0 0 0 0 0 0 0];

internalField   nonuniform List<scalar> 
5170
(
0
0
0
0
0
0
0
0
0
0
0
0
0
0
0
0
0
0
0
0
0
0
0
0
0
0
0
0
0
0
0
0
0
0
0
0
0
0
0
0
0
0
0
0
0
0
0
0
0
0
0
0
0
0
0
0
0
0
0
0
0
0
0
0
0
0
0
0
0
0
0
0
0
0
0
0
0
0
0
0
0
0
0
0
0
0
0
0
0
0
0
0
0
0
0
0
0
8.366038821e-11
7.215725697e-10
3.770757809e-09
0.0004148430085
0.0004142984169
0.0004139842858
0.0004139449851
0.0004139959348
0.0002540963648
0.0002695221878
0.0002692394993
0.0002674554937
0.0002439760536
0.0001744258584
0.0001929199383
0.0001928734095
0.000185978805
0.0001612934372
0.0001301539945
0.0001477560451
0.0001482604364
0.0001388509951
0.0001184036699
0.0001030215227
0.0001186862519
0.0001191846471
0.0001101530291
9.160209105e-05
8.782535981e-05
9.983749531e-05
0.0001010092166
9.207713948e-05
7.754377202e-05
7.538574042e-05
8.745835445e-05
8.856606693e-05
8.144245068e-05
7.164545796e-05
7.0351196e-05
7.712157425e-05
7.818653437e-05
7.469553425e-05
6.725046002e-05
6.691495105e-05
7.201705971e-05
7.283862738e-05
6.966205702e-05
6.321361032e-05
6.388699092e-05
6.901350693e-05
6.915015176e-05
6.578675179e-05
6.145499342e-05
6.17255596e-05
6.573061123e-05
6.570403415e-05
6.252933111e-05
6.005047806e-05
6.024309646e-05
6.229751322e-05
6.246441758e-05
6.10247928e-05
5.904087237e-05
5.924106249e-05
6.092218072e-05
6.109307792e-05
5.977510574e-05
5.806616587e-05
5.83791536e-05
5.974445882e-05
5.984844459e-05
5.878652842e-05
5.713999557e-05
5.75395253e-05
5.883592647e-05
5.889950282e-05
5.779586969e-05
5.618310334e-05
5.673443733e-05
5.792442347e-05
5.795072685e-05
5.686437747e-05
5.527809093e-05
5.587619626e-05
5.703290501e-05
5.70217373e-05
5.591303987e-05
5.432774685e-05
5.50597132e-05
5.614364536e-05
5.608248023e-05
5.495423604e-05
5.334847166e-05
5.579912102e-05
5.5550434e-05
5.515390508e-05
5.398724132e-05
5.227798171e-05
0.0002299658754
8.423649926e-05
5.909562145e-05
5.386939719e-05
5.192006316e-05
5.68988663e-11
5.844028131e-10
9.44558377e-09
1.415021711e-07
2.252247051e-06
2.532021292e-10
1.757400418e-09
1.88403024e-08
1.43727706e-07
1.209031923e-06
5.973155895e-10
3.206556217e-09
2.310131664e-08
1.085926362e-07
5.818611947e-07
1.06955729e-09
4.63577002e-09
2.38754007e-08
7.140530347e-08
2.796506916e-07
1.421334488e-09
4.096503898e-09
0
4.322538499e-08
1.551456305e-07
1.706739347e-09
3.835831448e-09
2.630179796e-09
2.777104474e-08
1.129003983e-07
1.954383522e-09
3.717615384e-09
3.761352475e-09
2.043051549e-08
9.706975656e-08
2.038692064e-09
2.841069702e-09
3.888527768e-09
1.590557361e-08
7.924485093e-08
1.718731346e-09
0
3.448545514e-09
1.32329421e-08
6.865930098e-08
1.497414844e-09
4.794672769e-10
2.966433386e-09
1.098120109e-08
5.505865181e-08
1.331029046e-09
7.705102598e-10
2.832941843e-09
1.150376939e-08
6.111872944e-08
9.732921162e-10
8.628075342e-10
2.626928971e-09
1.062628939e-08
5.204855627e-08
6.950343452e-10
8.005582882e-10
2.119710125e-09
7.916183958e-09
3.37078514e-08
5.163529254e-10
7.207479055e-10
2.000355651e-09
8.205927431e-09
3.736121622e-08
4.200230475e-10
6.991554367e-10
2.148542575e-09
9.119600521e-09
3.975470995e-08
3.655139385e-10
6.840704721e-10
2.21554308e-09
9.008740407e-09
3.590928261e-08
3.794437608e-10
7.900540384e-10
2.682443242e-09
9.580259557e-09
3.467711757e-08
5.501320729e-10
1.189474045e-09
3.978702662e-09
1.274623538e-08
4.526002603e-08
9.326812661e-10
2.214754951e-09
8.329764586e-09
2.91095602e-08
1.018297771e-07
2.37104757e-09
4.810921716e-09
1.435224623e-08
4.702298783e-08
1.579190322e-07
4.040180207e-09
6.730814186e-09
1.555862064e-08
4.003837614e-08
1.066879996e-07
5.740744427e-09
7.659201489e-09
1.294181053e-08
2.444929756e-08
4.863892613e-08
5.151195279e-09
6.012744045e-09
8.13374924e-09
1.199739357e-08
1.854280512e-08
2.805538448e-09
3.073370462e-09
3.660215207e-09
4.483178728e-09
5.719910223e-09
9.707161643e-10
1.010279453e-09
1.086940567e-09
1.219247196e-09
1.364374275e-09
2.430534379e-10
2.510033471e-10
2.649611218e-10
2.760855002e-10
2.865364835e-10
6.942730027e-11
7.036456416e-11
7.135223708e-11
7.150142399e-11
7.213825518e-11
2.330095072e-11
2.328092959e-11
2.31597124e-11
2.279389931e-11
2.23690886e-11
8.531475312e-12
8.503075408e-12
8.38727757e-12
8.214314406e-12
7.953758081e-12
3.299103543e-12
3.289194151e-12
3.261639394e-12
3.176717673e-12
3.043861e-12
1.228653863e-12
1.224752095e-12
1.215033086e-12
1.212825129e-12
1.188976567e-12
5.804957872e-13
5.763030274e-13
5.660470688e-13
5.492871676e-13
5.252206806e-13
4.769258102e-13
4.870107296e-13
5.060168157e-13
5.220872402e-13
5.270530963e-13
1.594925268e-12
1.642167372e-12
1.731507145e-12
1.821848013e-12
1.855830988e-12
5.24677453e-12
5.816060817e-12
7.066065787e-12
8.764490147e-12
1.087483363e-11
2.832840301e-11
2.915589854e-11
3.094298028e-11
3.34922329e-11
3.652785265e-11
6.083579897e-11
6.330953471e-11
6.863399418e-11
7.743480198e-11
8.947658885e-11
1.035966541e-10
1.078321015e-10
1.171256103e-10
1.309614075e-10
1.498198132e-10
1.072804155e-10
1.123398419e-10
1.234378498e-10
1.403069174e-10
1.634026436e-10
5.769115225e-11
6.125217361e-11
6.898922796e-11
8.040459922e-11
9.596004524e-11
2.064164821e-13
1.015740757e-12
3.685735986e-12
8.318851195e-12
1.513115699e-11
0
0
0
0
0
0
0
0
0
0
0
0
0
0
0
0
0
0
0
0
0
0
0
0
0
0
0
0
0
0
0
0
0
0
0
0
0
0
0
0
0
0
0
0
0
0
0
0
0
0
0
0
0
0
0
0
0
0
0
0
0
0
0
0
0
0
0
0
0
0
0
0
0
0
0
0
0
0
0
0
0
0
0
0
0
1.876589206e-11
1.827366416e-11
1.725034853e-11
1.579549331e-11
1.399073953e-11
5.231476736e-11
5.13525453e-11
4.933004085e-11
4.640744807e-11
4.270123802e-11
6.427180917e-11
6.316177485e-11
6.080931312e-11
5.738595461e-11
5.302764785e-11
4.758042589e-11
4.657718085e-11
4.442032204e-11
4.122588128e-11
3.707472176e-11
1.283040851e-11
1.208149272e-11
1.048434862e-11
8.208494533e-12
5.661496066e-12
0
0
0
0
0
8.228810701e-13
4.750722294e-14
0
0
0
7.350476093e-10
7.219331399e-10
6.940586145e-10
6.531824453e-10
6.00438164e-10
2.280153604e-09
2.246924024e-09
2.176458216e-09
2.073612744e-09
1.941293944e-09
3.820277457e-09
3.784935975e-09
3.709989433e-09
3.599787825e-09
3.455948036e-09
5.159407993e-09
5.133235143e-09
5.078660369e-09
5.00012408e-09
4.90083601e-09
6.637482655e-09
6.624550268e-09
6.598766529e-09
6.563369782e-09
6.520900644e-09
1.737703725e-05
6.083232119e-06
2.445479639e-06
1.081873573e-06
6.364895389e-07
5.137551833e-07
4.388668554e-07
3.285781904e-07
2.76780546e-07
2.014104568e-07
2.27685982e-07
1.721836578e-07
9.565772999e-08
1.171173726e-07
1.167791879e-07
9.845717425e-08
8.71251166e-08
1.303354009e-07
2.670969347e-07
4.05585991e-07
2.279492391e-07
8.291714397e-08
2.586025167e-08
6.876641229e-09
1.490725852e-09
2.974843869e-10
7.271008866e-11
2.218356513e-11
7.729385764e-12
2.939239069e-12
1.156882429e-12
5.071432939e-13
5.090126382e-13
1.778267788e-12
1.24349719e-11
3.847925495e-11
9.939967046e-11
1.649757083e-10
1.810699351e-10
1.089049119e-10
2.137127049e-11
0
0
0
0
0
0
0
0
0
0
0
0
0
0
0
0
0
1.25392288e-11
3.96707969e-11
4.950787843e-11
3.371351986e-11
4.032381542e-12
0
0
5.567874403e-10
1.832271488e-09
3.335519953e-09
4.817550675e-09
6.483980613e-09
7.209609451e-05
0.0007288422492
0.0004109887899
0.000108560963
4.042479381e-05
2.011877186e-05
0.0001435017231
0.001024455355
0.0003943978243
4.578037342e-05
8.352170514e-06
7.171103387e-05
0.0007593092884
0.0008715641728
9.497502429e-05
3.653114252e-06
2.920838302e-05
0.0002341385863
0.001303387141
0.0003102587404
2.281679263e-06
2.059585587e-05
0.000179147561
0.00142686183
0.0006963917747
1.931959926e-06
1.819036701e-05
0.0001518765047
0.001163378846
0.001090329315
1.586047909e-06
1.373714728e-05
0.000102434471
0.0007061757618
0.001351059337
1.102614274e-06
8.296086583e-06
5.358395388e-05
0.0003190527015
0.001408756765
9.18257271e-07
6.252186725e-06
3.798633223e-05
0.0002290248746
0.001291723831
6.08713759e-07
4.607480583e-06
3.068449759e-05
0.000182658608
0.001023943529
7.133722446e-07
3.947578558e-06
2.3596129e-05
0.0001322600399
0.0006936940432
4.912807577e-07
2.868080447e-06
1.573586261e-05
8.017110144e-05
0.0003808887627
2.431465634e-07
2.229555974e-06
1.107900406e-05
5.407032949e-05
0.0002474890862
3.305196764e-07
2.059677621e-06
9.175535844e-06
4.428496385e-05
0.000202876064
3.052997544e-07
1.667391766e-06
7.813650719e-06
3.648249826e-05
0.000160680667
2.527047323e-07
1.240334069e-06
6.625721511e-06
2.899690062e-05
0.000120352329
2.072520907e-07
9.618844122e-07
5.651555437e-06
2.465348051e-05
9.886918509e-05
3.231189375e-07
1.595796498e-06
7.404579931e-06
3.189237498e-05
0.0001302406293
6.489417533e-07
3.190752241e-06
1.461663414e-05
6.330403186e-05
0.0002615106719
1.032588444e-06
5.158644565e-06
2.362714419e-05
0.0001029807517
0.0004461150517
5.169958843e-07
2.032550317e-06
7.253364589e-06
2.322999822e-05
6.389118432e-05
1.567214326e-07
4.58975486e-07
1.276481048e-06
3.235111241e-06
6.816758241e-06
3.996274309e-08
8.338870465e-08
1.731591823e-07
3.461016314e-07
6.0207655e-07
8.989553139e-09
1.365034604e-08
2.09398095e-08
3.28730154e-08
4.868973267e-08
1.761388046e-09
2.130955908e-09
2.588279413e-09
3.252581745e-09
4.085163143e-09
3.239967748e-10
3.48326115e-10
3.597844602e-10
3.641274442e-10
3.64677379e-10
7.593346086e-11
7.707362704e-11
7.557260932e-11
7.163525603e-11
6.657483369e-11
2.248152801e-11
2.185462726e-11
2.054022693e-11
1.786780681e-11
1.645311806e-11
7.397759627e-12
7.32824748e-12
6.674453933e-12
5.23197219e-12
3.206078191e-12
2.844474839e-12
2.399012944e-12
2.267692584e-12
1.93622276e-12
1.486424072e-12
1.128176042e-12
1.018135351e-12
8.804728665e-13
7.796374765e-13
6.539233488e-13
4.878863221e-13
4.308689394e-13
3.677241344e-13
3.079236963e-13
2.266734986e-13
4.505695497e-13
2.615137232e-13
0
0
2.541538733e-15
1.514739327e-12
3.086818187e-12
5.767399563e-12
7.933260896e-12
9.34542609e-12
1.445474271e-11
1.900899926e-11
2.473929105e-11
3.060807351e-11
4.959855656e-11
4.046338222e-11
5.210436871e-11
7.398039057e-11
1.034265751e-10
1.385010655e-10
1.130636459e-10
1.447198028e-10
1.86925152e-10
2.381157984e-10
3.115691741e-10
1.868443573e-10
2.344242461e-10
3.01911199e-10
3.736379942e-10
4.480445529e-10
2.073597781e-10
2.577310278e-10
3.165818674e-10
3.803326462e-10
4.468064361e-10
1.296228278e-10
1.666333636e-10
2.078592779e-10
2.514935124e-10
3.019230503e-10
3.209783365e-11
5.340119164e-11
7.948750285e-11
1.181468951e-10
1.506862677e-10
0
7.302886411e-12
1.309854812e-11
1.798373059e-11
2.41931427e-11
0
0
0
0
0
0
0
0
0
0
0
0
0
0
0
0
0
0
0
0
0
0
0
0
0
0
0
0
0
0
0
0
0
0
0
0
0
0
0
0
0
0
0
0
0
0
0
0
0
0
0
0
0
0
0
0
0
0
0
0
0
0
0
0
0
0
0
0
0
0
0
0
0
0
0
0
0
0
0
0
9.998899902e-12
6.391795603e-12
3.344910044e-12
1.043223153e-12
0
3.447210535e-11
2.650001263e-11
1.913266947e-11
1.253671667e-11
7.13339805e-12
4.369278977e-11
3.425825516e-11
2.504932957e-11
1.618414501e-11
8.400065173e-12
2.841458356e-11
1.963253563e-11
1.125248797e-11
4.264302159e-12
0
1.892304723e-12
0
0
0
0
0
0
0
0
0
0
0
0
0
0
4.828748697e-10
3.644716563e-10
2.491638214e-10
1.441095974e-10
6.105807954e-11
1.650239214e-09
1.35835798e-09
1.061239154e-09
7.925877466e-10
5.638064445e-10
3.128757126e-09
2.810545984e-09
2.494624331e-09
2.226262628e-09
2.002888435e-09
4.662502829e-09
4.439556254e-09
4.246406836e-09
4.094290828e-09
3.99371445e-09
6.400600872e-09
6.307961142e-09
6.262554222e-09
6.270012023e-09
6.319648547e-09
6.626806327e-07
3.066549029e-08
0
0
0
0
0
0
0
0
0
0
0
0
0
0
0
0
0
0
0
0
0
0
0
0
0
0
0
0
0
0
0
0
0
0
0
0
0
0
0
0
0
0
0
0
0
0
0
0
0
0
0
0
0
0
0
0
0
0
1.143298338e-06
2.880131108e-08
1.423178095e-09
0
0
0
0
0
0
0
0
0
0
0
0
0
0
0
0
0
0
0
0
0
0
0
0
0
0
0
0
0
0
0
0
0
0
0
0
0
0
0
0
0
0
0
0
0
0
0
0
0
0
0
0
0
0
0
0
0
2.588970223e-06
8.953601031e-08
5.417539513e-09
0
0
0
0
0
0
0
0
0
0
0
0
0
0
0
0
0
0
0
0
0
0
0
0
0
0
0
0
0
0
0
0
0
0
0
0
0
0
0
0
0
0
0
0
0
0
0
0
0
0
0
0
0
0
0
0
0
1.153052248e-05
4.840962822e-07
4.257376376e-08
1.803596271e-10
0
0
0
0
0
0
0
0
0
0
0
0
0
0
0
0
0
0
0
0
0
0
0
0
0
0
0
0
0
0
0
0
0
0
0
0
0
0
0
0
0
0
0
0
0
0
0
0
0
0
0
0
0
0
0
0
4.433715414e-05
1.85431541e-06
1.449774853e-07
5.042929633e-09
0
0
0
0
0
0
0
0
0
0
0
0
0
0
0
0
0
0
0
0
0
0
0
0
0
0
0
0
0
0
0
0
0
0
0
0
0
0
0
0
0
0
0
0
0
0
0
0
0
0
0
0
0
0
0
0
0.0001684236572
8.363397151e-06
4.654997069e-07
5.758513337e-08
2.019091926e-09
0
0
0
0
0
0
0
0
0
0
0
0
0
0
0
0
0
0
0
0
0
0
0
0
0
0
0
0
0
0
0
0
0
0
0
0
0
0
0
0
0
0
0
0
0
0
0
0
0
0
0
0
0
0
0
0.000400585376
2.839246739e-05
1.760711856e-06
1.208944911e-07
1.218947148e-08
0
0
0
0
0
0
0
0
0
0
0
0
0
0
0
0
0
0
0
0
0
0
0
0
0
0
0
0
0
0
0
0
0
0
0
0
0
0
0
0
0
0
0
0
0
0
0
0
0
0
0
0
0
0
0
0.0006956865789
8.8098851e-05
6.025484158e-06
4.144800779e-07
0
0
0
0
0
0
0
0
0
0
0
0
0
0
0
0
0
0
0
0
0
0
0
0
0
0
0
0
0
0
0
0
0
0
0
0
0
0
0
0
0
0
0
0
0
0
0
0
0
0
0
0
0
0
0
0
0.001000160303
0.0002127199174
1.776082494e-05
1.442986174e-06
1.126637739e-07
0
0
0
0
0
0
0
0
0
0
0
0
0
0
0
0
0
0
0
0
0
0
0
0
0
0
0
0
0
0
0
0
0
0
0
0
0
0
0
0
0
0
0
0
0
0
0
0
0
0
0
0
0
0
0
0.0012355021
0.0004041336788
4.853264669e-05
3.996282131e-06
3.588077214e-07
3.224234678e-08
1.612475796e-09
0
0
0
0
0
0
0
0
0
0
0
0
0
0
0
0
0
0
0
0
0
0
0
0
0
0
0
0
0
0
0
0
0
0
0
0
0
0
0
0
0
0
0
0
0
0
0
0
0
0
0
0
0
0.0013415766
0.0006505181675
0.0001254186688
1.098169751e-05
9.479348136e-07
8.504444536e-08
0
0
0
0
0
0
0
0
0
0
0
0
0
0
0
0
0
0
0
0
0
0
0
0
0
0
0
0
0
0
0
0
0
0
0
0
0
0
0
0
0
0
0
0
0
0
0
0
0
0
0
0
0
0
0.001317708116
0.0008956534211
0.0002579796875
2.806479178e-05
2.259309059e-06
1.933077237e-07
1.536833879e-08
2.618903222e-10
0
0
0
0
0
0
0
0
0
0
0
0
0
0
0
0
0
0
0
0
0
0
0
0
0
0
0
0
0
0
0
0
0
0
0
0
0
0
0
0
0
0
0
0
0
0
0
0
0
0
0
0
0.001196778076
0.001103667975
0.0004332930596
6.839306821e-05
5.31391064e-06
4.186247479e-07
3.76763781e-08
0
0
0
0
0
0
0
0
0
0
0
0
0
0
0
0
0
0
0
0
0
0
0
0
0
0
0
0
0
0
0
0
0
0
0
0
0
0
0
0
0
0
0
0
0
0
0
0
0
0
0
0
0
0.0009986577233
0.001246306581
0.0006352032863
0.000150050403
1.230989982e-05
9.212338019e-07
8.074643333e-08
0
0
0
0
0
0
0
0
0
0
0
0
0
0
0
0
0
0
0
0
0
0
0
0
0
0
0
0
0
0
0
0
0
0
0
0
0
0
0
0
0
0
0
0
0
0
0
0
0
0
0
0
0
0.000761170483
0.001316404648
0.0008497988875
0.000270283116
2.387965084e-05
1.726158236e-06
1.502481539e-07
1.589570513e-08
4.322727092e-10
0
0
0
0
0
0
0
0
0
0
0
0
0
0
0
0
0
0
0
0
0
0
0
0
0
0
0
0
0
0
0
0
0
0
0
0
0
0
0
0
0
0
0
0
0
0
0
0
0
0
0
0.000535694189
0.001325057134
0.001045739457
0.0003955006023
3.56943695e-05
2.546917056e-06
2.243375273e-07
2.93709112e-08
1.42737006e-09
0
0
0
0
0
0
0
0
0
0
0
0
0
0
0
0
0
0
0
0
0
0
0
0
0
0
0
0
0
0
0
0
0
0
0
0
0
0
0
0
0
0
0
0
0
0
0
0
0
0
0
0.0004242778784
0.001334601835
0.001161149396
0.000425831665
3.55314985e-05
2.513778595e-06
2.221572023e-07
2.785619139e-08
0
0
0
0
0
0
0
0
0
0
0
0
0
0
0
0
0
0
0
0
0
0
0
0
0
0
0
0
0
0
0
0
0
0
0
0
0
0
0
0
0
0
0
0
0
0
0
0
0
0
0
0
0.0005703120018
0.001446080076
0.001100235732
0.0001644589929
1.281074949e-05
1.009918518e-06
1.118894935e-07
1.515393997e-08
0
0
0
0
0
0
0
0
0
0
0
0
0
0
0
0
0
0
0
0
0
0
0
0
0
0
0
0
0
0
0
0
0
0
0
0
0
0
0
0
0
0
0
0
0
0
0
0
0
0
0
0
0.001129888111
0.001535443769
0.0007494403504
6.124369672e-05
4.100120488e-06
3.255772765e-07
3.916328081e-08
4.98515732e-09
1.879034686e-10
0
0
0
0
0
0
0
0
0
0
0
0
0
0
0
0
0
0
0
0
0
0
0
0
0
0
0
0
0
0
0
0
0
0
0
0
0
0
0
0
0
0
0
0
0
0
0
0
0
0
0
0.001705617515
0.000678586923
8.164755708e-05
7.620279521e-06
6.652396115e-07
7.429266686e-08
1.248828837e-08
2.526183465e-09
0
0
0
0
0
0
0
0
0
0
0
0
0
0
0
0
0
0
0
0
0
0
0
0
0
0
0
0
0
0
0
0
0
0
0
0
0
0
0
0
0
0
0
0
0
0
0
0
0
0
0
0
0.0001321567934
4.526069517e-05
7.322965468e-06
8.880485703e-07
1.077653409e-07
1.792538796e-08
4.150580137e-09
9.886900179e-10
0
0
0
0
0
0
0
0
0
0
0
0
0
0
0
0
0
0
0
0
0
0
0
0
0
0
0
0
0
0
0
0
0
0
0
0
0
0
0
0
0
0
0
0
0
0
0
0
0
0
0
0
1.023489108e-05
3.542038671e-06
6.932557516e-07
1.093206424e-07
1.898329127e-08
4.488854834e-09
1.06147178e-09
2.655045596e-10
1.920130838e-12
0
0
0
0
0
0
0
0
0
0
0
0
0
0
0
0
0
0
0
0
0
0
0
0
0
0
0
0
0
0
0
0
0
0
0
0
0
0
0
0
0
0
0
0
0
0
0
0
0
0
0
7.644160558e-07
2.901316816e-07
6.881814852e-08
1.450414923e-08
3.715008729e-09
1.305828557e-09
4.114747061e-10
9.394207083e-11
1.052846737e-11
0
0
0
0
0
0
0
0
0
0
0
0
0
0
0
0
0
0
0
0
0
0
0
0
0
0
0
0
0
0
0
0
0
0
0
0
0
0
0
0
0
0
0
0
0
0
0
0
0
0
0
5.649408122e-08
2.439993412e-08
7.294971572e-09
2.181522521e-09
7.546066978e-10
1.634315208e-10
7.783734572e-11
2.369543414e-11
0
0
0
0
0
0
0
0
0
0
0
0
0
0
0
0
0
0
0
0
0
0
0
0
0
0
0
0
0
0
0
0
0
0
0
0
0
0
0
0
0
0
0
0
0
0
0
0
0
0
0
0
4.385672473e-09
2.229924916e-09
7.741893489e-10
3.60389153e-10
1.574828353e-10
6.025683596e-11
2.403230068e-11
6.304831616e-12
0
0
0
0
0
0
0
0
3.095082251e-10
0
0
0
0
0
0
0
0
0
0
0
0
0
0
0
0
0
0
0
0
0
0
0
0
0
0
0
0
0
0
0
0
0
0
0
0
0
0
0
0
0
0
0
3.43437363e-10
2.296381159e-10
1.389444975e-10
8.764322968e-11
3.720988036e-11
1.249821907e-11
5.218658863e-12
1.154101063e-12
0
0
0
0
0
0
0
0
2.935644292e-09
3.883855795e-09
7.937371811e-10
0
0
0
0
0
0
0
0
0
0
0
0
0
0
0
0
0
0
0
0
0
0
0
0
0
0
0
0
0
0
0
0
0
0
0
0
0
0
0
0
0
5.777845023e-11
4.263337234e-11
2.750257077e-11
5.688072615e-12
5.720086631e-12
0
4.303012519e-13
0
0
2.339860519e-15
0
0
0
0
0
0
0
4.303584531e-09
4.382114959e-09
5.294438495e-10
0
0
0
0
0
0
0
0
0
0
0
0
0
0
0
0
0
0
0
0
0
0
0
0
0
0
0
0
0
0
0
0
0
0
0
0
0
0
0
0
1.538354905e-11
1.107366011e-11
5.464265889e-12
2.979202726e-12
1.281772131e-12
2.482026373e-13
1.432601929e-13
2.003377775e-14
0
0
0
0
0
0
0
0
0
0
5.311702647e-09
4.650712017e-09
3.872069303e-10
0
0
0
0
0
0
0
0
0
0
0
0
0
0
0
0
0
0
0
0
0
0
0
0
0
0
0
0
0
0
0
0
0
0
0
0
0
0
0
3.270665514e-12
2.054408768e-12
1.547354579e-12
7.749101123e-13
1.417191237e-13
9.285677794e-14
1.858960399e-14
0
0
0
0
0
0
0
0
0
0
0
9.164005068e-09
1.436493639e-08
7.754655669e-09
7.433507789e-10
0
0
0
0
0
0
0
0
0
0
0
0
0
0
0
0
0
0
0
0
0
0
0
0
0
0
0
0
0
0
0
0
0
0
0
0
0
0
1.179329946e-12
8.433518912e-13
5.644280641e-13
1.950341342e-13
1.493246877e-13
1.098438428e-13
6.82073922e-14
0
0
0
0
0
0
0
0
0
0
0
0
1.307807754e-08
1.710590065e-08
6.846608544e-09
2.182694735e-10
0
0
0
0
0
0
0
0
0
0
0
0
0
0
0
0
0
0
0
0
0
0
0
0
0
0
0
0
0
0
0
0
0
0
0
0
0
5.331481651e-13
3.803014843e-13
2.331347724e-13
1.274688091e-13
6.815005295e-14
4.960417422e-14
0
0
0
0
0
0
0
0
0
0
0
0
0
0
1.554575419e-08
1.750661117e-08
5.134764665e-09
0
0
0
0
0
0
0
0
0
0
0
0
0
0
0
0
0
0
0
0
0
0
0
0
0
0
0
0
0
0
0
0
0
0
0
0
0
8.111654197e-14
0
0
0
0
0
0
0
0
0
0
0
0
0
0
0
0
0
0
0
2.077369102e-08
3.375093975e-08
2.416597188e-08
5.036008943e-09
0
0
0
0
0
0
0
0
0
0
0
0
0
0
0
0
0
0
0
0
0
0
0
0
0
0
0
0
0
0
0
0
0
0
0
0
0
5.341648075e-13
1.979031849e-12
1.37524858e-12
0
0
0
0
0
2.349816891e-11
1.485234724e-12
0
3.390927757e-12
0
0
0
0
0
0
0
0
2.812759189e-08
3.912582585e-08
2.126537678e-08
3.05744895e-09
0
0
0
0
0
0
0
0
0
0
0
0
0
0
0
0
0
0
0
0
0
0
0
0
0
0
0
0
0
0
0
0
0
0
0
1.746744005e-11
3.194528093e-11
4.137926688e-11
6.240100706e-11
8.549953909e-11
1.104915801e-10
1.24213824e-10
1.611476588e-10
2.350348879e-10
2.777648043e-10
2.717740945e-10
2.235829241e-10
9.213850443e-11
7.921782577e-11
0
0
0
0
0
0
0
0
3.309683013e-08
3.978713324e-08
1.565670687e-08
1.287749991e-09
0
0
0
0
0
0
0
0
0
0
0
0
0
0
0
0
0
0
0
0
0
0
0
0
0
0
0
0
0
0
0
0
0
0
7.412667387e-11
1.024714939e-10
1.884561813e-10
2.78934165e-10
3.719213853e-10
4.819095537e-10
5.698786206e-10
6.364218325e-10
7.20548487e-10
7.69556053e-10
7.249821832e-10
6.122018087e-10
3.927227434e-10
2.292036416e-10
0
0
0
0
0
0
0
0
3.510782124e-08
5.606745054e-08
4.317365786e-08
1.112050191e-08
1.894633564e-10
0
0
0
0
0
0
0
0
0
0
0
0
0
0
0
0
0
0
0
0
0
0
0
0
0
0
0
0
0
0
0
0
0
1.780198813e-10
2.721266042e-10
4.191281451e-10
6.013740569e-10
7.725351512e-10
9.425966653e-10
1.080615376e-09
1.163689312e-09
1.249040187e-09
1.257755445e-09
1.140242266e-09
9.674433835e-10
6.6273556e-10
3.422712761e-10
4.374717334e-11
0
0
0
0
0
0
0
0
4.459293426e-08
6.073636628e-08
3.680165445e-08
6.554663218e-09
0
0
0
0
0
0
0
0
0
0
0
0
0
0
0
0
0
0
0
0
0
0
0
0
0
0
0
0
0
0
0
0
0
3.967031169e-10
5.370339321e-10
7.414929578e-10
9.333118276e-10
1.116370221e-09
1.290053972e-09
1.422729365e-09
1.491232154e-09
1.55399639e-09
1.509830352e-09
1.343642483e-09
1.123004962e-09
7.866274024e-10
3.687878264e-10
1.289728192e-10
0
0
0
0
0
0
0
0
4.422408677e-08
7.750060374e-08
7.366703281e-08
3.127844413e-08
3.661006211e-09
0
0
0
0
0
0
0
0
0
0
0
0
0
0
0
0
0
0
0
0
0
0
0
0
0
0
0
0
0
0
0
0
5.373115617e-10
6.804382155e-10
8.799910485e-10
1.05251999e-09
1.206320485e-09
1.341844686e-09
1.430329966e-09
1.452104068e-09
1.470400846e-09
1.393823054e-09
1.222525077e-09
9.820452059e-10
6.746342496e-10
3.110167649e-10
1.383776321e-10
0
0
0
0
0
0
0
0
0
6.47817606e-08
9.419500679e-08
7.096300203e-08
2.028075438e-08
1.088859404e-09
0
0
0
0
0
0
0
0
0
0
0
0
0
0
0
0
0
0
0
0
0
0
0
0
0
0
0
0
0
0
0
5.323056504e-10
6.802757448e-10
8.209284302e-10
9.429159121e-10
1.05412161e-09
1.12079958e-09
1.156042429e-09
1.142895808e-09
1.085098798e-09
9.674511453e-10
7.933515123e-10
5.776935254e-10
3.329950005e-10
7.946210652e-11
2.594139631e-11
0
0
0
1.350944142e-12
2.047883994e-12
0
0
0
0
3.640497633e-08
9.974225768e-08
1.097340409e-07
6.301804687e-08
1.225871552e-08
7.016750266e-12
0
0
0
0
0
0
0
0
0
0
0
0
0
0
0
0
0
0
0
0
0
0
0
0
0
0
0
0
0
0
3.917541347e-10
4.844504458e-10
5.670014124e-10
6.306467636e-10
6.900502481e-10
7.025958337e-10
6.959104922e-10
6.494313242e-10
5.727577144e-10
4.575510419e-10
3.244310308e-10
1.913225601e-10
7.329314034e-11
0
0
0
0
0
0
0
0
0
0
0
8.433275594e-09
9.162157725e-08
1.321928045e-07
1.121598256e-07
4.772073712e-08
6.071301398e-09
0
0
0
0
0
0
0
0
0
0
0
0
0
0
0
0
0
0
0
0
0
0
0
0
0
0
0
0
0
0
1.891211971e-10
2.261644575e-10
2.564396693e-10
2.881428373e-10
3.044548573e-10
2.906456956e-10
2.774095915e-10
2.294414236e-10
1.772065632e-10
1.048576996e-10
4.374116536e-11
1.886479648e-12
0
0
0
0
0
0
0
0
0
0
0
0
0
3.277140142e-08
1.245949606e-07
1.482132423e-07
1.023885099e-07
3.06130103e-08
2.120547271e-09
0
0
0
0
0
0
0
0
0
0
0
0
0
0
0
0
0
0
0
0
0
0
0
0
0
0
0
0
0
3.034481942e-11
3.89427315e-11
4.11204283e-11
5.478135006e-11
4.679670316e-11
3.385401042e-11
3.415957106e-11
1.517991873e-11
1.383467452e-11
0
0
0
0
0
0
0
0
0
0
0
0
0
9.426567841e-13
0
0
2.285294288e-08
1.21297263e-07
1.72268818e-07
1.556472557e-07
8.276698996e-08
1.609049129e-08
1.223792756e-10
0
0
0
0
0
0
0
0
0
0
0
0
0
0
0
0
0
0
0
0
0
0
0
0
0
0
0
0
0
0
0
2.02066127e-12
0
0
5.127629317e-13
0
0
0
0
0
0
0
0
0
0
0
0
0
0
0
0
0
0
0
5.845484529e-08
1.631724415e-07
1.917915073e-07
1.453387853e-07
5.935028882e-08
7.610231106e-09
0
0
0
0
0
0
0
0
0
0
0
0
0
0
0
0
0
0
0
0
0
0
0
0
0
0
0
0
0
0
0
0
0
0
0
0
0
0
0
0
0
0
0
0
0
0
0
0
0
0
0
0
0
0
4.681785124e-08
1.606472181e-07
2.179112551e-07
2.011676036e-07
1.237214677e-07
3.611958349e-08
2.400410206e-09
0
0
0
0
0
0
0
0
0
0
0
0
0
0
0
0
0
0
0
0
0
0
0
0
0
0
0
0
0
0
0
0
0
0
0
0
0
0
0
0
0
0
0
0
0
0
0
0
0
0
0
0
0
2.348298543e-08
1.033649486e-07
2.146088377e-07
2.417959374e-07
1.912520812e-07
9.38803664e-08
1.750631294e-08
7.042415302e-11
0
0
0
0
0
0
0
0
0
0
0
0
0
0
0
0
0
0
0
0
0
0
0
0
0
0
0
0
0
0
0
0
0
0
0
0
0
0
0
0
0
0
0
0
0
0
0
0
0
0
0
0
1.56607461e-08
9.031272681e-08
2.141072277e-07
2.70356367e-07
2.495535319e-07
1.664071585e-07
6.274809951e-08
7.259829277e-09
0
0
0
0
0
0
0
0
0
0
0
0
0
0
0
0
0
0
0
0
0
0
0
0
0
0
0
0
0
0
0
0
0
5.211322118e-12
1.513493848e-11
4.706179263e-11
1.06713034e-10
1.691412723e-10
2.569253527e-10
4.018415998e-10
6.986402752e-10
9.175286518e-10
8.814601522e-10
1.323158818e-09
1.825374877e-09
1.954555301e-09
1.706382639e-09
1.739724873e-09
2.795328296e-09
4.028040149e-09
0
3.560829694e-09
1.91360035e-08
8.522693728e-08
1.9815012e-07
2.878126475e-07
3.003349428e-07
2.395520052e-07
1.327309617e-07
3.50962602e-08
1.647353326e-09
0
0
0
0
0
0
0
0
0
0
0
0
0
0
0
0
0
0
0
0
0
0
0
0
0
0
0
0
5.495468425e-13
4.319977367e-12
1.496415568e-11
7.096476117e-11
1.414489719e-10
2.390202137e-10
4.195210319e-10
6.660204973e-10
9.881742802e-10
1.431820058e-09
2.090680125e-09
3.044629212e-09
4.065082928e-09
5.023580739e-09
6.63606639e-09
8.624330505e-09
1.037141283e-08
1.039179028e-08
1.10452744e-08
1.273647961e-08
1.428718613e-08
1.452501968e-08
1.044018683e-08
1.500064997e-08
6.340630547e-08
1.536609551e-07
2.772803058e-07
3.276948102e-07
2.99739759e-07
2.092116042e-07
9.259455439e-08
1.498507425e-08
0
0
0
0
0
0
0
0
0
0
0
0
0
0
0
0
0
0
0
0
0
0
0
0
0
0
0
6.318326183e-12
1.707088042e-11
3.573147378e-11
1.035004654e-10
2.111849182e-10
3.574450195e-10
5.605089258e-10
8.936055054e-10
1.332879936e-09
1.911425499e-09
2.675308205e-09
3.787758352e-09
5.272703519e-09
6.915362145e-09
8.588657727e-09
1.092619486e-08
1.376424962e-08
1.651332622e-08
1.731040779e-08
1.926619808e-08
2.154795376e-08
2.480864639e-08
2.812001257e-08
2.558686212e-08
3.705779048e-08
6.420490762e-08
1.424807621e-07
2.708564691e-07
3.461128306e-07
3.493768969e-07
2.819343781e-07
1.687319575e-07
5.609358426e-08
4.676098075e-09
0
0
0
0
0
0
0
0
0
0
0
0
0
0
0
0
0
0
0
0
0
0
0
0
7.141340838e-13
4.838686962e-12
1.397999815e-11
3.384781179e-11
7.926272604e-11
1.710823195e-10
2.9934265e-10
4.836407547e-10
7.477260213e-10
1.142388972e-09
1.679898896e-09
2.379528257e-09
3.286245511e-09
4.588689192e-09
6.275671415e-09
8.129145134e-09
1.001077044e-08
1.253080394e-08
1.543590611e-08
1.815981104e-08
1.952917104e-08
2.18787e-08
2.434787208e-08
2.755860953e-08
3.017843265e-08
2.669928924e-08
3.232253505e-08
4.535473386e-08
1.020630098e-07
1.989880614e-07
3.236495563e-07
3.718713916e-07
3.403920491e-07
2.454506149e-07
1.22085163e-07
2.653699145e-08
2.234688288e-10
0
0
0
0
0
0
0
0
0
0
0
0
0
0
0
0
0
0
0
0
0
0
0
3.176268241e-13
2.237689692e-12
9.506525775e-12
2.700546434e-11
8.423687545e-11
1.623396779e-10
2.769714e-10
4.453308127e-10
6.992074975e-10
1.062389167e-09
1.565144898e-09
2.227393679e-09
3.091574209e-09
4.372071884e-09
6.012952011e-09
7.806882397e-09
9.614571398e-09
1.203000367e-08
1.486954189e-08
1.763925754e-08
1.966395444e-08
2.279509483e-08
2.626467705e-08
3.073213657e-08
3.510508728e-08
3.809698991e-08
3.807158199e-08
4.516584999e-08
9.305656924e-08
1.848809712e-07
3.212053385e-07
3.965312571e-07
3.953681449e-07
3.21972798e-07
2.021797665e-07
7.721532205e-08
8.592068961e-09
0
0
0
0
0
0
0
0
0
0
0
0
0
0
0
0
0
0
0
0
0
0
0
1.356362914e-13
1.203091679e-12
5.181524771e-12
2.182192667e-11
5.265346222e-11
1.03107894e-10
1.817314495e-10
2.984879909e-10
4.845024816e-10
7.46440692e-10
1.121454638e-09
1.632158219e-09
2.367244472e-09
3.499269479e-09
4.970489151e-09
6.61049652e-09
8.312831473e-09
1.070364135e-08
1.367675718e-08
1.683080596e-08
1.961657424e-08
2.386374659e-08
2.921746382e-08
3.515309216e-08
4.248938982e-08
5.026385725e-08
5.223199849e-08
6.66131547e-08
9.239457037e-08
1.619809103e-07
2.67974854e-07
3.937736682e-07
4.344776171e-07
3.910311333e-07
2.842111373e-07
1.505996525e-07
3.962610206e-08
9.460033061e-10
0
0
0
0
0
0
0
0
0
0
0
0
0
0
0
0
0
0
0
0
0
0
0
2.675890005e-14
1.072991001e-13
3.944615532e-12
1.318045316e-11
3.015559503e-11
5.875767568e-11
1.055704523e-10
1.907478808e-10
3.319465577e-10
5.399893102e-10
8.338403745e-10
1.381394697e-09
2.282966382e-09
3.492764414e-09
4.88470983e-09
6.456406466e-09
8.825684801e-09
1.190354278e-08
1.551520057e-08
1.944398257e-08
2.34285258e-08
2.918202138e-08
3.570907912e-08
4.360899788e-08
5.146262263e-08
5.483456386e-08
6.739291777e-08
8.618146175e-08
1.468328908e-07
2.489692632e-07
3.887311362e-07
4.57561679e-07
4.448939718e-07
3.602356417e-07
2.317378644e-07
9.792942462e-08
1.391452786e-08
0
0
0
0
0
0
0
0
0
0
0
0
0
0
0
0
0
0
0
0
0
0
0
0
0
0
0
5.933519765e-13
2.263743782e-12
3.627506945e-12
7.387998839e-12
2.753388829e-11
5.730911321e-11
9.927332605e-11
3.655783984e-10
8.935929389e-10
1.648249864e-09
2.54059807e-09
3.718207149e-09
5.700830465e-09
8.395081582e-09
1.171743681e-08
1.541149077e-08
1.95146503e-08
2.555232528e-08
3.272933548e-08
4.173675049e-08
5.135502099e-08
6.042449021e-08
7.236135381e-08
9.453265477e-08
1.382375872e-07
2.268436285e-07
3.555847758e-07
4.601743859e-07
4.83309666e-07
4.274426419e-07
3.129903289e-07
1.741365813e-07
5.258697495e-08
1.740429702e-09
0
0
0
0
0
0
0
0
0
0
0
0
0
0
0
0
0
0
0
0
0
0
0
0
0
0
0
0
0
0
2.020426193e-13
0
0
0
8.229268735e-13
9.281479802e-11
2.607442486e-10
7.024037919e-10
1.889473499e-09
3.697978352e-09
6.099476607e-09
8.896766377e-09
1.267714675e-08
1.856109889e-08
2.594922234e-08
3.492332214e-08
4.558367624e-08
5.709757556e-08
6.359722957e-08
8.180174773e-08
1.090325288e-07
1.804891233e-07
2.917178293e-07
4.317921718e-07
4.952508576e-07
4.764584655e-07
3.870602531e-07
2.549948654e-07
1.162685496e-07
1.972191038e-08
0
0
0
0
0
0
0
0
0
0
0
0
0
0
0
0
0
0
0
0
0
0
0
0
0
0
5.030765239e-15
0
0
0
0
0
0
0
0
0
0
0
0
2.885319342e-10
1.374405697e-09
3.079871897e-09
5.785519068e-09
1.091372514e-08
1.789174223e-08
2.594848829e-08
3.562335037e-08
4.538786785e-08
5.192471617e-08
6.772539389e-08
8.977253322e-08
1.540074254e-07
2.624400461e-07
4.139215227e-07
5.045799559e-07
5.180347308e-07
4.554264818e-07
3.363973965e-07
1.941705843e-07
6.560624602e-08
3.537126876e-09
0
0
0
0
0
0
0
0
0
0
0
0
0
0
0
0
0
0
0
0
0
0
0
0
0
0
0
0
0
0
0
0
0
8.830808614e-13
0
0
0
0
0
0
1.981810822e-10
1.718417258e-09
6.087241155e-09
1.268886589e-08
2.067378689e-08
3.062842657e-08
4.11199011e-08
5.077341777e-08
6.624596965e-08
9.346064233e-08
1.324953866e-07
2.165858626e-07
3.376908286e-07
4.789396302e-07
5.36801548e-07
5.094254801e-07
4.120076191e-07
2.743754675e-07
1.325918115e-07
2.76055125e-08
0
0
0
0
0
0
0
0
0
0
0
0
0
0
0
0
0
0
0
0
0
0
3.473700156e-14
0
0
0
0
0
0
0
0
0
5.114901022e-13
0
0
0
0
0
0
0
2.529908924e-11
1.359293553e-09
5.62526006e-09
1.222439607e-08
2.033355345e-08
3.062617077e-08
4.217451316e-08
5.445306176e-08
6.358273327e-08
8.463454267e-08
1.143533903e-07
1.892567372e-07
3.074055453e-07
4.636025397e-07
5.494756421e-07
5.530428726e-07
4.805961026e-07
3.550326433e-07
2.097482073e-07