/*--------------------------------*- C++ -*----------------------------------*\
  =========                 |
  \\      /  F ield         | OpenFOAM: The Open Source CFD Toolbox
   \\    /   O peration     | Website:  https://openfoam.org
    \\  /    A nd           | Version:  10
     \\/     M anipulation  |
\*---------------------------------------------------------------------------*/
FoamFile
{
    format      ascii;
    class       surfaceScalarField;
    location    "0.02498436188";
    object      phi;
}
// * * * * * * * * * * * * * * * * * * * * * * * * * * * * * * * * * * * * * //

dimensions      [1 0 -1 0 0 0 0];

internalField   nonuniform List<scalar> 
10159
(
-8.920751133e-09
1.197951123e-06
-3.965881852e-08
3.597216843e-06
-9.203589761e-08
5.996778513e-06
-1.571863373e-07
8.388086971e-06
1.054323451e-05
-8.896609661e-09
1.206950882e-06
-3.349628774e-08
3.62211512e-06
-7.310709926e-08
6.036913088e-06
-1.185290254e-07
8.434198629e-06
1.042563034e-05
-9.811297601e-09
1.216859805e-06
-3.815636894e-08
3.65076897e-06
-8.347383025e-08
6.082730685e-06
-1.308705313e-07
8.482301907e-06
1.029566648e-05
-1.001189295e-08
1.226971546e-06
-4.039126193e-08
3.681457172e-06
-8.845239269e-08
6.131296388e-06
-1.214725772e-07
8.516036896e-06
1.017510744e-05
-1.105836546e-08
1.238132951e-06
-4.336652306e-08
3.714077971e-06
-9.232468583e-08
6.180771533e-06
-1.19752269e-07
8.544191509e-06
1.005628546e-05
-1.125202532e-08
1.249483556e-06
-4.413067824e-08
3.747252202e-06
-9.242712387e-08
6.229560502e-06
-1.147728625e-07
8.567226417e-06
9.942397137e-06
-1.113145171e-08
1.260714563e-06
-4.351340787e-08
3.779936891e-06
-9.197309055e-08
6.278511354e-06
-1.095366966e-07
8.585501068e-06
9.833756533e-06
-1.116459805e-08
1.271980237e-06
-4.322234041e-08
3.812290742e-06
-8.652268296e-08
6.322313456e-06
-1.021127691e-07
8.601783121e-06
9.732534899e-06
-1.067533637e-08
1.282726709e-06
-4.162833582e-08
3.843457252e-06
-8.470690463e-08
6.365764581e-06
-9.658929668e-08
8.614167434e-06
9.636586637e-06
-9.639276362e-09
1.292430324e-06
-3.833145929e-08
3.87234016e-06
-8.949883937e-08
6.41724195e-06
-9.289220853e-08
8.618012728e-06
9.544269125e-06
-9.823127713e-09
1.302323486e-06
-3.824143424e-08
3.900964089e-06
-8.011731509e-08
6.459445941e-06
-8.222549507e-08
8.620600928e-06
9.462668375e-06
-1.017056386e-08
1.312546115e-06
-3.904400282e-08
3.929993109e-06
-6.828589934e-08
6.488943129e-06
-7.038781093e-08
8.623069263e-06
9.392754343e-06
-9.916018531e-09
1.322500949e-06
-3.775711785e-08
3.95794695e-06
-6.493460045e-08
6.516321913e-06
-6.291420217e-08
8.62131626e-06
9.33018465e-06
-9.36165296e-09
1.331892377e-06
-3.562271763e-08
3.984297053e-06
-6.275895112e-08
6.543613619e-06
-5.735151259e-08
8.616116976e-06
9.273099695e-06
-9.022309613e-09
1.34094076e-06
-3.383548674e-08
4.009188201e-06
-5.998961767e-08
6.569897757e-06
-5.02368303e-08
8.606546604e-06
9.223101164e-06
-8.629779582e-09
1.349595075e-06
-3.220995505e-08
4.032838001e-06
-5.739133518e-08
6.595199019e-06
-4.374399899e-08
8.593063777e-06
9.179575723e-06
-8.335419749e-09
1.357952045e-06
-3.050882748e-08
4.055077103e-06
-5.198072822e-08
6.616778208e-06
-3.710228203e-08
8.578336599e-06
9.142666595e-06
-8.282294942e-09
1.366257902e-06
-3.175710633e-08
4.078618942e-06
-5.343923825e-08
6.638572261e-06
-3.587603942e-08
8.560941091e-06
9.10698957e-06
-1.069212441e-08
1.376976665e-06
-4.171041487e-08
4.109714453e-06
-8.69330718e-08
6.683974267e-06
-6.685847407e-08
8.540969101e-06
9.040418792e-06
-6.554695154e-08
1.442545996e-06
-2.656722526e-07
4.309877393e-06
-5.259166658e-07
6.944339647e-06
-7.429951725e-07
8.758234149e-06
8.297581188e-06
9.624598447e-08
7.151730019e-07
-2.997085565e-08
1.132298582e-06
-1.538420343e-07
1.324476537e-06
-3.029001741e-07
1.544959771e-06
1.28697446e-06
3.246218717e-08
6.827056501e-07
-3.082945452e-08
1.195495414e-06
-1.095386015e-07
1.402793633e-06
-1.480237678e-07
1.583418269e-06
1.138538941e-06
2.569990187e-08
6.569592233e-07
-1.11777944e-08
1.232182131e-06
-9.022416851e-08
1.481757578e-06
-1.024385971e-07
1.595458291e-06
1.036058454e-06
2.096290243e-08
6.359475934e-07
-1.423088789e-09
1.25451746e-06
-6.285882552e-08
1.543055751e-06
-7.538048261e-08
1.607851888e-06
9.605659069e-07
1.71831047e-08
6.187916553e-07
2.469902065e-09
1.26918375e-06
-3.999494711e-08
1.5854889e-06
-4.512937099e-08
1.613008862e-06
9.154720544e-07
1.494465893e-08
6.038381198e-07
4.308707961e-09
1.279837938e-06
-2.666550396e-08
1.616443437e-06
-2.797644782e-08
1.614328461e-06
8.875197092e-07
1.23169073e-08
5.914800951e-07
5.983095515e-09
1.286103659e-06
-1.664078722e-08
1.638940173e-06
-1.440728253e-08
1.612004364e-06
8.7302202e-07
8.195493704e-09
5.832319427e-07
3.135990612e-09
1.291104732e-06
-8.005582465e-09
1.649999267e-06
-4.63537651e-09
1.608602103e-06
8.682402795e-07
4.91833117e-09
5.781979431e-07
1.51862788e-09
1.294511106e-06
-4.266191662e-09
1.655780141e-06
5.171349782e-10
1.603667384e-06
8.686293213e-07
2.940237582e-09
5.752365831e-07
3.25593701e-10
1.297052324e-06
-2.604740856e-09
1.658663944e-06
2.523398527e-09
1.598403196e-06
8.709746075e-07
1.175620299e-09
5.739472221e-07
-8.114306657e-10
1.298903276e-06
-1.674046315e-09
1.659369423e-06
3.363234422e-09
1.593126231e-06
8.741469128e-07
2.802788716e-10
5.735873548e-07
-1.251670304e-09
1.300244942e-06
-5.569015259e-10
1.658588708e-06
4.06968078e-09
1.588359437e-06
8.780376551e-07
-4.491728033e-10
5.739519272e-07
-1.615956217e-09
1.301329391e-06
1.821399738e-11
1.656824538e-06
3.825926799e-09
1.58440237e-06
8.817625312e-07
-9.707593486e-10
5.749965135e-07
-2.133496037e-09
1.302205906e-06
8.020019789e-11
1.654509645e-06
4.411551476e-09
1.580319289e-06
8.858821821e-07
-2.818644308e-09
5.774212305e-07
-3.246029506e-09
1.30331664e-06
-2.17359962e-09
1.652765259e-06
3.752293675e-09
1.574607602e-06
8.895062304e-07
-3.068927712e-09
5.804260156e-07
-3.591968672e-09
1.303950252e-06
2.212148365e-09
1.645733456e-06
2.987433542e-09
1.573995724e-06
8.932691385e-07
-1.098501143e-08
5.912421247e-07
-1.341078313e-08
1.306922748e-06
-1.120203606e-08
1.64285117e-06
-4.437500325e-09
1.566008588e-06
8.902035452e-07
-3.618587689e-08
6.274823895e-07
-4.025970941e-08
1.311075218e-06
-2.843805292e-08
1.630832588e-06
-1.264228143e-08
1.549897229e-06
8.777374833e-07
-1.003416048e-07
7.275547009e-07
-1.016539874e-07
1.311993199e-06
-7.553101271e-08
1.604985406e-06
-3.905116434e-08
1.514670239e-06
8.377672841e-07
-7.737665974e-07
1.503623379e-06
-7.36344295e-07
1.271318807e-06
-4.573380744e-07
1.324381064e-06
-1.695243651e-07
1.231839135e-06
6.658021347e-07
7.605287532e-09
1.434649868e-06
5.514310614e-08
4.26281222e-06
1.860603417e-07
6.813239306e-06
6.731175874e-07
8.270730037e-06
6.386827297e-06
2.588060396e-06
1.994875618e-09
1.433085446e-06
1.165235456e-08
4.25177974e-06
8.814468523e-08
6.736846772e-06
5.209420738e-07
7.838874564e-06
5.813146055e-06
1.090347878e-06
1.707617181e-09
1.431043793e-06
1.8579721e-08
4.234553599e-06
1.419540853e-07
6.613347145e-06
6.400755372e-07
7.339706216e-06
5.466249025e-06
9.829709999e-07
2.350409055e-09
1.428134738e-06
2.863862445e-08
4.208779116e-06
2.013806488e-07
6.440529859e-06
7.247312514e-07
6.818698627e-06
5.229334794e-06
9.608661813e-07
4.48438668e-09
1.423618668e-06
4.417622599e-08
4.169267656e-06
2.755927136e-07
6.209573827e-06
7.687520315e-07
6.328112284e-06
5.052930444e-06
9.482801752e-07
7.228974287e-09
1.416366488e-06
6.835471931e-08
4.10820775e-06
3.608737698e-07
5.916748641e-06
7.976003646e-07
5.892094858e-06
4.897734867e-06
9.545934418e-07
1.116068892e-08
1.405332381e-06
9.97256815e-08
4.019175509e-06
4.351056891e-07
5.581874507e-06
8.14935047e-07
5.510469641e-06
4.744670423e-06
9.676243239e-07
1.651930001e-08
1.389146817e-06
1.392379002e-07
3.896517985e-06
4.905057753e-07
5.230036061e-06
8.198690996e-07
5.180095294e-06
4.598322493e-06
9.643548699e-07
2.499095937e-08
1.364743942e-06
1.848071927e-07
3.736498918e-06
5.352262434e-07
4.878958496e-06
8.257502768e-07
4.889514042e-06
4.459891573e-06
9.631099846e-07
3.63281146e-08
1.328077596e-06
2.3367456e-07
3.538932711e-06
5.720221448e-07
4.540786767e-06
8.335556769e-07
4.627426362e-06
4.326138857e-06
9.669352054e-07
5.416874338e-08
1.273761162e-06
2.843934965e-07
3.308037941e-06
6.009031774e-07
4.223045306e-06
8.40457341e-07
4.386692535e-06
4.195884722e-06
9.703717881e-07
8.004816019e-08
1.193204082e-06
3.329688372e-07
3.053533443e-06
6.278214148e-07
3.926052952e-06
8.517863558e-07
4.160210334e-06
4.064915121e-06
9.809856081e-07
9.928871431e-08
1.093368089e-06
3.545114395e-07
2.797281556e-06
6.274581292e-07
3.65183458e-06
8.380038265e-07
3.948012125e-06
3.934160996e-06
9.665871751e-07
1.11216493e-07
9.817820464e-07
3.639194431e-07
2.544141456e-06
6.242563535e-07
3.391707008e-06
8.297981286e-07
3.742965751e-06
3.800005701e-06
9.638076548e-07
1.134553811e-07
8.686011036e-07
3.59505221e-07
2.298662618e-06
6.115448003e-07
3.141121584e-06
8.154083354e-07
3.540276213e-06
3.659148438e-06
9.564671503e-07
1.055935068e-07
7.631765638e-07
3.416764541e-07
2.063193699e-06
5.925503104e-07
2.891743941e-06
8.05543298e-07
3.329515076e-06
3.50272258e-06
9.646610714e-07
9.844537262e-08
6.646552839e-07
3.282340187e-07
1.833144556e-06
5.837576636e-07
2.635841203e-06
8.105435632e-07
3.102644861e-06
3.323561554e-06
9.898344314e-07
8.725807809e-08
5.774922196e-07
3.003961351e-07
1.620244814e-06
5.49707538e-07
2.386724407e-06
7.811381146e-07
2.871022118e-06
3.130838034e-06
9.726684168e-07
7.152660709e-08
5.061241722e-07
2.542244765e-07
1.438066344e-06
4.796926857e-07
2.161884438e-06
6.964504376e-07
2.654952682e-06
2.950911957e-06
8.773246567e-07
5.817976703e-08
4.481393834e-07
2.080307518e-07
1.289181249e-06
3.955393705e-07
1.976649665e-06
5.727834485e-07
2.4829479e-06
2.824091717e-06
7.105283036e-07
5.546489497e-08
3.929645093e-07
2.000409036e-07
1.146204072e-06
3.832389397e-07
1.79894317e-06
5.56771503e-07
2.32264392e-06
2.720185707e-06
6.85628031e-07
4.920929041e-08
3.456439157e-07
1.785715652e-07
1.023474469e-06
3.463686665e-07
1.645625885e-06
5.090424708e-07
2.185956782e-06
2.63638344e-06
6.345261768e-07
3.694687256e-08
3.129268655e-07
1.384585426e-07
9.354053592e-07
2.790312698e-07
1.529606442e-06
4.279069634e-07
2.07567872e-06
2.562476506e-06
5.580076223e-07
2.687574104e-08
2.922452447e-07
1.03360583e-07
8.779785205e-07
2.164357122e-07
1.449723835e-06
3.479581175e-07
1.993522998e-06
2.499635376e-06
4.782735444e-07
1.950244136e-08
2.803005845e-07
7.675302476e-08
8.437248271e-07
1.651422734e-07
1.400400246e-06
2.739951153e-07
1.940823574e-06
2.457497238e-06
3.914968266e-07
1.426787098e-08
2.741287507e-07
5.715665302e-08
8.252266688e-07
1.258438549e-07
1.372808108e-06
2.146886617e-07
1.910129901e-06
2.431240203e-06
3.170986549e-07
1.125688505e-08
2.708599214e-07
4.567122788e-08
8.14906082e-07
1.021922702e-07
1.356520341e-06
1.781535684e-07
1.890586223e-06
2.412297903e-06
2.70580618e-07
9.649082161e-09
2.687106869e-07
3.903424631e-08
8.077980331e-07
8.815659288e-08
1.344706228e-06
1.555057628e-07
1.875248239e-06
2.395363475e-06
2.388603131e-07
9.039666241e-09
2.663028597e-07
3.648216125e-08
8.000489672e-07
8.254746095e-08
1.331534526e-06
1.463366977e-07
1.85712949e-06
2.373267588e-06
2.263158173e-07
9.046740937e-09
2.628135642e-07
3.668287847e-08
7.8915039e-07
8.278762117e-08
1.313130605e-06
1.467971113e-07
1.831465168e-06
2.340943796e-06
2.28023199e-07
9.480602904e-09
2.578932204e-07
3.805210633e-08
7.741115729e-07
8.579609551e-08
1.287921149e-06
1.519654607e-07
1.796328072e-06
2.296429905e-06
2.36163807e-07
9.713852557e-09
2.517460383e-07
3.906859442e-08
7.554340566e-07
8.784772782e-08
1.256753451e-06
1.557153928e-07
1.752966994e-06
2.24145525e-06
2.409936822e-07
9.652725327e-09
2.448533866e-07
3.858590206e-08
7.34587375e-07
8.67449992e-08
1.222002724e-06
1.537891768e-07
1.704649447e-06
2.180179996e-06
2.381529659e-07
9.111446214e-09
2.377556353e-07
3.656727982e-08
7.131179742e-07
8.235300421e-08
1.186248413e-06
1.458551876e-07
1.654948227e-06
2.117122846e-06
2.258764778e-07
8.415717546e-09
2.307884102e-07
3.374075471e-08
6.921142693e-07
7.586536237e-08
1.151279868e-06
1.343692775e-07
1.60633529e-06
2.055419162e-06
2.08657012e-07
7.654385124e-09
2.241573254e-07
3.063741816e-08
6.721121742e-07
6.88037365e-08
1.118007759e-06
1.220584751e-07
1.5600981e-06
1.996700543e-06
1.892375598e-07
6.933933862e-09
2.178843914e-07
2.781440216e-08
6.532500452e-07
6.246877056e-08
1.086650238e-06
1.106447703e-07
1.516528425e-06
1.941373995e-06
1.717177981e-07
6.335565565e-09
2.11972578e-07
2.542637315e-08
6.354718963e-07
5.705406704e-08
1.0571143e-06
1.01118483e-07
1.47550509e-06
1.88927625e-06
1.566817429e-07
5.916591515e-09
2.063690782e-07
2.347575567e-08
6.186653628e-07
5.266428612e-08
1.029223953e-06
9.332467129e-08
1.436782871e-06
1.840095286e-06
1.450765766e-07
5.450623463e-09
2.010562106e-07
2.190533981e-08
6.027286625e-07
4.922775047e-08
1.002791377e-06
8.694805019e-08
1.400087151e-06
1.793480059e-06
1.352028296e-07
5.151959454e-09
1.960005154e-07
2.061029352e-08
5.875943072e-07
4.62161538e-08
9.776937111e-07
8.175414502e-08
1.365243461e-06
1.749201891e-06
1.269279023e-07
4.882789345e-09
1.911940317e-07
1.948064735e-08
5.731914509e-07
4.366170248e-08
9.538139186e-07
7.733285972e-08
1.332086868e-06
1.707050154e-06
1.198604546e-07
4.613690748e-09
1.86607145e-07
1.849187321e-08
5.59473547e-07
4.146220007e-08
9.310693531e-07
7.339113546e-08
1.300495626e-06
1.666869711e-06
1.137119513e-07
4.398430367e-09
1.822384269e-07
1.758553509e-08
5.463893208e-07
3.944034286e-08
9.093731283e-07
6.984369697e-08
1.270354984e-06
1.628514752e-06
1.082047669e-07
4.187744579e-09
1.780615286e-07
1.676837544e-08
5.338985012e-07
3.761852864e-08
8.886560724e-07
6.657467989e-08
1.241561405e-06
1.591856321e-06
1.03388895e-07
4.009664481e-09
1.740739003e-07
1.600902618e-08
5.219563819e-07
3.59178802e-08
8.688470346e-07
6.360439988e-08
1.214024114e-06
1.5567826e-06
9.89511668e-08
3.829436276e-09
1.702555707e-07
1.531065098e-08
5.105311549e-07
3.436184272e-08
8.498875311e-07
6.0855846e-08
1.187656728e-06
1.523183745e-06
9.463297118e-08
3.665274643e-09
1.665985095e-07
1.466739666e-08
4.995793601e-07
3.292738129e-08
8.317159134e-07
5.831644454e-08
1.162380331e-06
1.490961833e-06
9.055457536e-08
3.516287212e-09
1.63088438e-07
1.406921661e-08
4.890768401e-07
3.157761009e-08
8.142823935e-07
5.595620246e-08
1.138122409e-06
1.460026751e-06
8.680738547e-08
3.379671467e-09
1.59718533e-07
1.35176143e-08
4.789837153e-07
3.034976548e-08
7.975298682e-07
5.374178517e-08
1.11480763e-06
1.430284773e-06
8.35607701e-08
3.258951378e-09
1.564760488e-07
1.299624708e-08
4.692800641e-07
2.917633849e-08
7.814177975e-07
5.171468235e-08
1.092377603e-06
1.401662217e-06
8.043789636e-08
3.136025391e-09
1.533586784e-07
1.251363464e-08
4.59941665e-07
2.807040357e-08
7.659127911e-07
4.975649197e-08
1.070789181e-06
1.374104482e-06
7.764044389e-08
2.998288398e-09
1.503572247e-07
1.203435805e-08
4.509576604e-07
2.70554056e-08
7.509909747e-07
4.788077778e-08
1.05000579e-06
1.347567742e-06
7.469380736e-08
2.907785975e-09
1.474672984e-07
1.160238479e-08
4.422991851e-07
2.605171946e-08
7.366107074e-07
4.619207507e-08
1.029974343e-06
1.32198273e-06
7.174541564e-08
2.79069623e-09
1.44678743e-07
1.120089798e-08
4.339501585e-07
2.511299187e-08
7.227392533e-07
4.456065425e-08
1.010646708e-06
1.297291207e-06
6.93550949e-08
2.690158473e-09
1.419894679e-07
1.080125112e-08
4.258917866e-07
2.424875072e-08
7.093516219e-07
4.298503019e-08
9.919903013e-07
1.273450246e-06
6.691348749e-08
2.616203117e-09
1.393895889e-07
1.043071089e-08
4.181053063e-07
2.342785673e-08
6.964109674e-07
4.150687911e-08
9.739522399e-07
1.250394974e-06
6.490158329e-08
2.521950888e-09
1.368806094e-07
1.006613762e-08
4.105857669e-07
2.260776612e-08
6.839147502e-07
4.006815123e-08
9.565314624e-07
1.228121842e-06
6.264524969e-08
2.441200538e-09
1.344497723e-07
9.743838841e-09
4.033041526e-07
2.18793155e-08
6.718094712e-07
3.879965455e-08
9.396513065e-07
1.206535261e-06
6.065244285e-08
2.347407481e-09
1.321061277e-07
9.392906595e-09
3.962793223e-07
2.109864422e-08
6.601322381e-07
3.740744032e-08
9.233662254e-07
1.185703564e-06
5.844022401e-08
2.284379585e-09
1.298265222e-07
9.128882515e-09
3.894502416e-07
2.050745149e-08
6.487765108e-07
3.635515889e-08
9.075255419e-07
1.165436345e-06
5.680590041e-08
2.198022265e-09
1.27636617e-07
8.777028236e-09
3.828853654e-07
1.969835287e-08
6.378610714e-07
3.493090522e-08
8.922976085e-07
1.145948156e-06
5.460045575e-08
2.146804826e-09
1.254956817e-07
8.57076162e-09
3.764712822e-07
1.924395889e-08
6.271930482e-07
3.413244757e-08
8.774113217e-07
1.126892908e-06
5.348309917e-08
2.03632268e-09
1.234596882e-07
8.154032055e-09
3.70366197e-07
1.832664998e-08
6.170393516e-07
3.248144876e-08
8.632413163e-07
1.108752519e-06
5.085841735e-08
2.031689246e-09
1.214339018e-07
8.100607929e-09
3.642972512e-07
1.822349198e-08
6.069439183e-07
3.231886911e-08
8.491500307e-07
1.090706885e-06
5.043079433e-08
1.895900013e-09
1.195376668e-07
7.599192201e-09
3.58608095e-07
1.707652437e-08
5.974797002e-07
3.030375848e-08
8.359402044e-07
1.073795961e-06
4.726406265e-08
1.976992666e-09
1.175645134e-07
7.896442819e-09
3.526973919e-07
1.774310144e-08
5.876433294e-07
3.150855588e-08
8.222018811e-07
1.056184502e-06
4.917854075e-08
1.77439873e-09
1.157916806e-07
7.120946595e-09
3.47363707e-07
1.602382236e-08
5.787519087e-07
2.848518382e-08
8.097649432e-07
1.04023316e-06
4.446373203e-08
2.14789576e-09
1.136477398e-07
8.561898001e-09
3.409609477e-07
1.921499568e-08
5.681079915e-07
3.410031991e-08
7.949116689e-07
1.021179783e-06
5.317470428e-08
1.574052092e-09
6.35162543e-09
1.431227013e-08
2.541785086e-08
3.95502549e-08
1.376840126e-06
1.205697826e-06
1.415360113e-06
1.055762748e-06
1.44311826e-06
9.571413045e-07
1.459511518e-06
9.473805148e-07
1.467968517e-06
9.405395175e-07
1.466964909e-06
9.565879664e-07
1.457024964e-06
9.771953913e-07
1.442509641e-06
9.781123266e-07
1.425365735e-06
9.797803623e-07
1.405576231e-06
9.866242196e-07
1.383631065e-06
9.9232527e-07
1.358370942e-06
1.005592174e-06
1.330517521e-06
9.944500167e-07
1.299694914e-06
9.947095403e-07
1.264770469e-06
9.916651832e-07
1.2232811e-06
1.005735031e-06
1.172764086e-06
1.041049366e-06
1.115359554e-06
1.029360876e-06
1.063737367e-06
9.29971171e-07
1.03361434e-06
7.463177731e-07
1.016619571e-06
7.15093643e-07
1.003911157e-06
6.661581519e-07
9.910324553e-07
5.949140513e-07
9.77380982e-07
5.207260154e-07
9.678203147e-07
4.306910468e-07
9.613365059e-07
3.540555993e-07
9.557980883e-07
3.0462373e-07
9.501119347e-07
2.712453091e-07
9.41877974e-07
2.578523211e-07
9.293748298e-07
2.594842789e-07
9.119726349e-07
2.686759222e-07
8.904074173e-07
2.754946017e-07
8.663187489e-07
2.720397605e-07
8.414956832e-07
2.582693021e-07
8.17176577e-07
2.378841102e-07
7.94010804e-07
2.161131719e-07
7.721724736e-07
1.959945601e-07
7.516029476e-07
1.791662284e-07
7.321757318e-07
1.650587976e-07
7.137579515e-07
1.540404951e-07
6.962565128e-07
1.448572176e-07
6.795900458e-07
1.37059417e-07
6.636959522e-07
1.301493415e-07
6.485164554e-07
1.239151297e-07
6.340012213e-07
1.180989843e-07
6.201093785e-07
1.127711649e-07
6.067961218e-07
1.079565314e-07
5.940238304e-07
1.035573095e-07
5.81758719e-07
9.942552783e-08
5.699622769e-07
9.54942607e-08
5.586078784e-07
9.185891204e-08
5.476720605e-07
8.830590904e-08
5.37139413e-07
8.507619808e-08
5.269825481e-07
8.217995657e-08
5.171781037e-07
7.920460207e-08
5.07709113e-07
7.647177711e-08
4.985504639e-07
7.376092388e-08
4.896997151e-07
7.12126649e-08
4.811210449e-07
6.896582268e-08
4.728394362e-07
6.653439375e-08
4.647817723e-07
6.468133674e-08
4.570315862e-07
6.215941839e-08
4.4945191e-07
6.067644461e-08
4.422364221e-07
5.779088684e-08
4.350547668e-07
5.757630021e-08
4.28331229e-07
5.396551844e-08
4.213123949e-07
5.615509493e-08
4.149690762e-07
5.082084377e-08
4.073403593e-07
6.082163644e-08
4.514212214e-08
-4.383185793e-07
3.157140168e-06
-7.424780402e-07
1.566003064e-06
-6.026659277e-07
1.191395379e-06
-4.013834491e-07
1.021016917e-06
6.086556278e-07
-3.453604115e-07
4.349517459e-07
3.777273209e-06
-1.119113462e-07
2.111073463e-06
-2.127428439e-07
1.300248253e-06
-2.061671695e-07
1.008818074e-06
7.208438929e-07
-3.18703443e-07
5.506888795e-07
4.181949613e-06
6.618704154e-08
2.589643682e-06
-1.546551575e-07
1.528520281e-06
-3.134498333e-07
1.155726947e-06
8.904701104e-07
-4.612096327e-07
6.450004904e-07
4.484420624e-06
2.790693814e-07
2.955249751e-06
-1.756090746e-08
1.824610278e-06
-2.342824018e-07
1.368807574e-06
1.127435685e-06
-4.703108012e-07
7.082996474e-07
4.717399662e-06
3.987680758e-07
3.265482393e-06
6.974739164e-08
2.151272181e-06
-1.355297578e-07
1.576744261e-06
1.340895151e-06
-3.507534668e-07
7.830180708e-07
4.89242078e-06
5.126840925e-07
3.535192337e-06
2.020984535e-07
2.457665912e-06
2.587864163e-09
1.776597783e-06
1.528012871e-06
-1.828673393e-07
8.485070742e-07
5.018960197e-06
6.088503344e-07
3.773460494e-06
3.197188402e-07
2.741216445e-06
1.137799088e-07
1.983424115e-06
1.710572302e-06
-6.904824405e-08
8.848414872e-07
5.110695663e-06
6.745626048e-07
3.981867363e-06
4.086727949e-07
3.003713523e-06
1.830979896e-07
2.20971277e-06
1.889044527e-06
3.31767096e-09
9.130682402e-07
5.176374677e-06
7.32849926e-07
4.163055101e-06
4.911785407e-07
3.243651915e-06
2.481127135e-07
2.454313484e-06
2.063398797e-06
7.542179522e-08
9.452364981e-07
5.217017986e-06
7.890754494e-07
4.316376917e-06
5.762555042e-07
3.457518203e-06
3.394905057e-07
2.686224884e-06
2.23272148e-06
1.720565082e-07
9.722708473e-07
5.237419384e-06
8.432336174e-07
4.444549823e-06
6.534788384e-07
3.647785117e-06
4.35468751e-07
2.903353786e-06
2.395685953e-06
2.722531725e-07
1.008841941e-06
5.233133815e-06
9.085021279e-07
4.543724675e-06
7.424974467e-07
3.813919616e-06
5.387799142e-07
3.106934955e-06
2.561194454e-06
3.704951144e-07
1.017980668e-06
5.208648519e-06
9.432158056e-07
4.617725149e-06
7.975507979e-07
3.956067944e-06
6.14454221e-07
3.292687496e-06
2.735763811e-06
4.397712339e-07
1.038511314e-06
5.163624448e-06
9.894210027e-07
4.667623572e-06
8.730572739e-07
4.072748836e-06
7.117162723e-07
3.451653499e-06
2.899693943e-06
5.488901503e-07
1.061721174e-06
5.093375091e-06
1.044647487e-06
4.686748995e-06
9.595902887e-07
4.159472417e-06
8.26706359e-07
3.582891633e-06
3.04317563e-06
6.839363505e-07
1.105747778e-06
4.993481315e-06
1.121717188e-06
4.67016598e-06
1.081881464e-06
4.205111989e-06
1.00050323e-06
3.669976414e-06
3.14271184e-06
9.002167974e-07
1.185901789e-06
4.850408779e-06
1.252889867e-06
4.605346584e-06
1.264463477e-06
4.193458321e-06
1.23892413e-06
3.69270831e-06
3.178385079e-06
1.203859427e-06
1.203780145e-06
4.671987137e-06
1.306779123e-06
4.495900386e-06
1.360208524e-06
4.131428447e-06
1.387070574e-06
3.654895441e-06
3.153127113e-06
1.40018483e-06
1.08424634e-06
4.520438931e-06
1.145634066e-06
4.43617262e-06
1.121185898e-06
4.152403987e-06
1.047902746e-06
3.716536085e-06
3.171341479e-06
1.01762579e-06
7.970528543e-07
4.506190675e-06
7.1203459e-07
4.594200546e-06
5.241489049e-07
4.494089463e-06
3.264192292e-07
4.253211026e-06
3.894059445e-06
1.945771629e-07
7.445303057e-07
4.551231059e-06
6.144203804e-07
4.851732498e-06
3.329680099e-07
4.991106577e-06
-7.675094665e-08
5.036773086e-06
5.054475186e-06
-6.202723975e-07
7.015158422e-07
4.624189707e-06
5.865532997e-07
5.134380687e-06
3.248908102e-07
5.502811534e-06
-6.179153469e-08
5.792918728e-06
6.064752188e-06
-5.419749408e-07
6.807170982e-07
4.671173283e-06
6.442706029e-07
5.363496084e-06
4.799733601e-07
5.933491178e-06
1.995054754e-07
6.427578983e-06
6.884018994e-06
-1.675232068e-07
6.565530504e-07
4.684484105e-06
7.081257045e-07
5.515791815e-06
6.627081487e-07
6.244189095e-06
5.265755014e-07
6.893716766e-06
7.483674842e-06
3.185052336e-07
5.836568578e-07
4.688276372e-06
6.93119534e-07
5.610739559e-06
7.458396525e-07
6.44563792e-06
7.393820987e-07
7.201872773e-06
7.88478923e-06
6.805232267e-07
5.140700504e-07
4.682625989e-06
6.635481251e-07
5.656581233e-06
7.886766685e-07
6.555433646e-06
8.824665459e-07
7.378123167e-06
8.121466876e-06
9.433565372e-07
4.645026694e-07
4.66823114e-06
6.339767864e-07
5.667120006e-06
8.023817003e-07
6.599172938e-06
9.609719558e-07
7.458382349e-06
8.237616411e-06
1.103526462e-06
4.239769822e-07
4.64609826e-06
5.965418905e-07
5.654542616e-06
7.80096061e-07
6.601106033e-06
9.669474786e-07
7.477774758e-06
8.27610244e-06
1.149015855e-06
4.084474613e-07
4.608440488e-06
5.836736076e-07
5.616296104e-06
7.766850434e-07
6.565441034e-06
9.801906421e-07
7.447284703e-06
8.253319037e-06
1.186672788e-06
4.132676879e-07
4.54892445e-06
5.942650713e-07
5.548681902e-06
7.967283318e-07
6.49230936e-06
1.014009213e-06
7.371336277e-06
8.177757133e-06
1.238783072e-06
4.28292857e-07
4.465353081e-06
6.16879985e-07
5.451139165e-06
8.28987363e-07
6.383612219e-06
1.058345185e-06
7.254719953e-06
8.057131696e-06
1.297609014e-06
4.385173004e-07
4.361411244e-06
6.321102776e-07
5.328729335e-06
8.504724113e-07
6.246078223e-06
1.087223999e-06
7.105929841e-06
7.901617854e-06
1.335456859e-06
4.335142582e-07
4.245047026e-06
6.255348658e-07
5.191015639e-06
8.42624292e-07
6.090754207e-06
1.078538503e-06
6.937276507e-06
7.72450111e-06
1.326839159e-06
4.117633291e-07
4.12489174e-06
5.950175294e-07
5.048291551e-06
8.024134659e-07
5.929279482e-06
1.02874279e-06
6.76142416e-06
7.539124906e-06
1.267406122e-06
3.800771265e-07
4.006996262e-06
5.497586498e-07
4.907809425e-06
7.42577986e-07
5.769877891e-06
9.533399328e-07
6.587261049e-06
7.354793556e-06
1.176628477e-06
3.452911111e-07
3.894592252e-06
5.000310401e-07
4.773550623e-06
6.761351514e-07
5.617100996e-06
8.694564962e-07
6.419771129e-06
7.176750297e-06
1.074912876e-06
3.133295691e-07
3.788572561e-06
4.539594416e-07
4.646657665e-06
6.146302001e-07
5.472340179e-06
7.91239795e-07
6.260544614e-06
7.006788366e-06
9.799992141e-07
2.862780004e-07
3.688667359e-06
4.150147278e-07
4.526900582e-06
5.622872107e-07
5.335409213e-06
7.248540112e-07
6.109475735e-06
6.844905156e-06
8.990296385e-07
2.642292212e-07
3.594295157e-06
3.832236427e-07
4.413626138e-06
5.195063028e-07
5.20562284e-06
6.704989297e-07
5.965896304e-06
6.690509488e-06
8.327153141e-07
2.464954242e-07
3.504785981e-06
3.576141283e-07
4.306054777e-06
4.851978632e-07
5.082141413e-06
6.267417291e-07
5.828953513e-06
6.542798615e-06
7.794685626e-07
2.317318973e-07
3.419698232e-06
3.36282678e-07
4.203670299e-06
4.566936116e-07
4.964410907e-06
5.90382748e-07
5.698093242e-06
6.401259342e-06
7.351636486e-07
2.191822356e-07
3.338623764e-06
3.18285171e-07
4.105992052e-06
4.325238279e-07
4.851896254e-06
5.597326056e-07
5.572761248e-06
6.265344385e-06
6.977772837e-07
2.08136881e-07
3.261279285e-06
3.024421672e-07
4.012695378e-06
4.112120112e-07
4.744250723e-06
5.327308108e-07
5.452610436e-06
6.134727527e-06
6.647704728e-07
1.982112313e-07
3.187381924e-06
2.881795771e-07
3.923444972e-06
3.921655322e-07
4.641104544e-06
5.084772857e-07
5.337246942e-06
6.009016723e-06
6.352651806e-07
1.891930342e-07
3.116683127e-06
2.752334108e-07
3.837951453e-06
3.748293847e-07
4.542147432e-06
4.864542538e-07
5.22636018e-06
5.887913571e-06
6.083929439e-07
1.808922255e-07
3.04897816e-06
2.633280705e-07
3.755982831e-06
3.588276467e-07
4.447131457e-06
4.661533446e-07
5.119704222e-06
5.77118626e-06
5.83513497e-07
1.73195971e-07
2.984060956e-06
2.522952188e-07
3.677299564e-06
3.440211064e-07
4.355792836e-06
4.473009739e-07
5.016998615e-06
5.658554401e-06
5.604739587e-07
1.660615504e-07
2.921753543e-06
2.42015598e-07
3.601700951e-06
3.302473123e-07
4.267920089e-06
4.297116939e-07
4.918032608e-06
5.549819633e-06
5.389197559e-07
1.594179298e-07
2.861883977e-06
2.324564215e-07
3.528986997e-06
3.174329881e-07
4.183294814e-06
4.133088403e-07
4.822580707e-06
5.444759551e-06
5.188396559e-07
1.533010659e-07
2.804282185e-06
2.236070119e-07
3.458963918e-06
3.055701836e-07
4.10170866e-06
3.980826285e-07
4.73042788e-06
5.343164927e-06
5.001645198e-07
1.475547898e-07
2.748807084e-06
2.153594962e-07
3.391467821e-06
2.944211557e-07
4.022981436e-06
3.838610558e-07
4.641390122e-06
5.244853116e-06
4.82618872e-07
1.421265413e-07
2.695358197e-06
2.075064612e-07
3.326380678e-06
2.83841197e-07
3.946984403e-06
3.703150571e-07
4.555331522e-06
5.149691587e-06
4.659217274e-07
1.369018883e-07
2.64385181e-06
1.999786632e-07
3.263607731e-06
2.736750379e-07
3.873617021e-06
3.572920997e-07
4.472153255e-06
5.057586896e-06
4.498241586e-07
1.320124978e-07
2.594165183e-06
1.929091601e-07
3.203008579e-06
2.641567673e-07
3.802725771e-06
3.450095705e-07
4.391692576e-06
4.968377601e-06
4.346820233e-07
1.274211247e-07
2.546179968e-06
1.862819041e-07
3.144440376e-06
2.551839639e-07
3.734150197e-06
3.334985723e-07
4.313779714e-06
4.88188613e-06
4.204181497e-07
1.230147189e-07
2.499825746e-06
1.799038112e-07
3.087826498e-06
2.465473436e-07
3.667808496e-06
3.223712951e-07
4.238331566e-06
4.798036236e-06
4.066198249e-07
1.189520945e-07
2.45496749e-06
1.739964039e-07
3.033000015e-06
2.385834217e-07
3.603510729e-06
3.120958139e-07
4.165139259e-06
4.716603809e-06
3.938883924e-07
1.148570318e-07
2.411615778e-06
1.68059682e-07
2.979985681e-06
2.305226269e-07
3.541293138e-06
3.016756962e-07
4.094255081e-06
4.637662885e-06
3.809272354e-07
1.112609974e-07
2.369570582e-06
1.62868075e-07
2.928533125e-06
2.234926642e-07
3.48086282e-06
2.926276745e-07
4.025346737e-06
4.560842704e-06
3.696915567e-07
1.072974879e-07
2.328986191e-06
1.57116936e-07
2.878845909e-06
2.156578487e-07
3.422469228e-06
2.824605046e-07
3.958712286e-06
4.486496482e-06
3.570104805e-07
1.043539537e-07
2.289476754e-06
1.528418054e-07
2.830444662e-06
2.098822476e-07
3.365548596e-06
2.750203328e-07
3.893707727e-06
4.413901266e-06
3.477638794e-07
1.003168634e-07
2.251475983e-06
1.46935822e-07
2.783872015e-06
2.018553554e-07
3.310749114e-06
2.645675481e-07
3.831085885e-06
4.34391842e-06
3.346734197e-07
9.80718088e-08
2.214299739e-06
1.437178183e-07
2.738283629e-06
1.9747002e-07
3.257071219e-06
2.589573769e-07
3.769698872e-06
4.27525387e-06
3.277174113e-07
9.337199207e-08
2.1788899e-06
1.368685974e-07
2.694841822e-06
1.881176832e-07
3.205897289e-06
2.467620822e-07
3.711143641e-06
4.209715923e-06
3.123941206e-07
9.287025993e-08