/*--------------------------------*- C++ -*----------------------------------*\
  =========                 |
  \\      /  F ield         | OpenFOAM: The Open Source CFD Toolbox
   \\    /   O peration     | Website:  https://openfoam.org
    \\  /    A nd           | Version:  10
     \\/     M anipulation  |
\*---------------------------------------------------------------------------*/
FoamFile
{
    format      ascii;
    class       surfaceScalarField;
    location    "0.02498436188";
    object      phi_0;
}
// * * * * * * * * * * * * * * * * * * * * * * * * * * * * * * * * * * * * * //

dimensions      [1 0 -1 0 0 0 0];

internalField   nonuniform List<scalar> 
10159
(
-9.220944425e-09
1.197961881e-06
-3.960805594e-08
3.59724956e-06
-9.17539918e-08
5.996833234e-06
-1.578287679e-07
8.388160671e-06
1.054332475e-05
-8.899580775e-09
1.206959727e-06
-3.348058067e-08
3.622139104e-06
-7.310915753e-08
6.036947217e-06
-1.184991958e-07
8.434275638e-06
1.042571832e-05
-9.807224512e-09
1.216869568e-06
-3.817524799e-08
3.650800006e-06
-8.351329314e-08
6.082786417e-06
-1.308943202e-07
8.482352611e-06
1.029571859e-05
-1.001072618e-08
1.226983244e-06
-4.040341124e-08
3.681492221e-06
-8.847310346e-08
6.131365047e-06
-1.214873957e-07
8.516072278e-06
1.017514168e-05
-1.105093509e-08
1.238137799e-06
-4.334292576e-08
3.714091802e-06
-9.219143858e-08
6.180730745e-06
-1.196853673e-07
8.544284573e-06
1.005638162e-05
-1.124726816e-08
1.249483841e-06
-4.412949972e-08
3.747270674e-06
-9.261286199e-08
6.229707622e-06
-1.148728451e-07
8.567235918e-06
9.942396654e-06
-1.116295743e-08
1.260751241e-06
-4.359498339e-08
3.78000944e-06
-9.197550633e-08
6.278609009e-06
-1.095161606e-07
8.585492261e-06
9.833814434e-06
-1.118555466e-08
1.272035852e-06
-4.333811085e-08
3.812467643e-06
-8.590804598e-08
6.321684211e-06
-1.018278945e-07
8.602111782e-06
9.732890378e-06
-1.056667749e-08
1.282678939e-06
-4.133379745e-08
3.843466775e-06
-8.563227635e-08
6.366382818e-06
-9.706525582e-08
8.614085141e-06
9.636519393e-06
-9.625888798e-09
1.292380627e-06
-3.816935929e-08
3.872237455e-06
-8.985182559e-08
6.41843169e-06
-9.310711181e-08
8.617873026e-06
9.54409874e-06
-9.93824657e-09
1.302397159e-06
-3.85492604e-08
3.901084683e-06
-7.897063809e-08
6.459230825e-06
-8.170644399e-08
8.621154211e-06
9.463103285e-06
-1.017872124e-08
1.312633492e-06
-3.912285412e-08
3.930202714e-06
-6.818888861e-08
6.488589485e-06
-7.026655462e-08
8.623638257e-06
9.393366275e-06
-9.874169598e-09
1.322547718e-06
-3.767341614e-08
3.958129166e-06
-6.520922637e-08
6.516340735e-06
-6.299730574e-08
8.621719215e-06
9.330741328e-06
-9.340782837e-09
1.331918833e-06
-3.556606319e-08
3.984447011e-06
-6.301983799e-08
6.543953454e-06
-5.74639001e-08
8.616376783e-06
9.273553828e-06
-9.026781929e-09
1.340969929e-06
-3.381478227e-08
4.009307405e-06
-6.00697676e-08
6.570327335e-06
-5.02611809e-08
8.606737956e-06
9.223514323e-06
-8.642071509e-09
1.349631626e-06
-3.218213406e-08
4.032909804e-06
-5.724751605e-08
6.595487792e-06
-4.373359072e-08
8.593370023e-06
9.179962294e-06
-8.346109549e-09
1.35799568e-06
-3.063386118e-08
4.055250926e-06
-5.190971957e-08
6.616850224e-06
-3.712500374e-08
8.578707918e-06
9.142994305e-06
-8.287379492e-09
1.366299465e-06
-3.182975836e-08
4.078845034e-06
-5.350155919e-08
6.638613405e-06
-3.586307557e-08
8.561183352e-06
9.107289414e-06
-1.069053889e-08
1.377008356e-06
-4.16116634e-08
4.109823635e-06
-8.70692109e-08
6.684111448e-06
-6.672131886e-08
8.541033553e-06
9.040661259e-06
-6.550817408e-08
1.442532009e-06
-2.653473375e-07
4.309743146e-06
-5.255681083e-07
6.944422471e-06
-7.427756794e-07
8.758355555e-06
8.298126275e-06
9.599477526e-08
7.151757038e-07
-3.032778233e-08
1.1323036e-06
-1.539005615e-07
1.32446737e-06
-3.037510392e-07
1.544958657e-06
1.286977117e-06
3.246932757e-08
6.827111959e-07
-3.107367994e-08
1.195497077e-06
-1.096218739e-07
1.402799916e-06
-1.484904065e-07
1.583452515e-06
1.138609058e-06
2.576535191e-08
6.569802737e-07
-1.093750655e-08
1.232207803e-06
-9.011077194e-08
1.481763345e-06
-1.022408154e-07
1.595475295e-06
1.036060845e-06
2.100557885e-08
6.360410363e-07
-1.458131664e-09
1.25462889e-06
-6.290275321e-08
1.54318182e-06
-7.535459775e-08
1.608012648e-06
9.607396451e-07
1.70941785e-08
6.188451828e-07
2.45099693e-09
1.269259079e-06
-4.005896052e-08
1.585573996e-06
-4.510834181e-08
1.613118591e-06
9.155814772e-07
1.489627909e-08
6.038516649e-07
4.192657634e-09
1.279859749e-06
-2.676422942e-08
1.616472218e-06
-2.800952292e-08
1.614379276e-06
8.875624592e-07
1.230675716e-08
5.915451959e-07
5.958280815e-09
1.286190391e-06
-1.664555015e-08
1.639046344e-06
-1.434555522e-08
1.612141182e-06
8.731578499e-07
8.223335502e-09
5.833161086e-07
3.198868584e-09
1.291220294e-06
-7.907876948e-09
1.650136001e-06
-4.568842266e-09
1.608748955e-06
8.683823558e-07
4.972394995e-09
5.782770102e-07
1.498261987e-09
1.294614486e-06
-4.387357299e-09
1.655912349e-06
5.535286821e-10
1.603822346e-06
8.687815407e-07
2.868201556e-09
5.752791331e-07
2.728416637e-10
1.297115266e-06
-2.686853678e-09
1.658733682e-06
2.49220016e-09
1.59848229e-06
8.710559271e-07
1.155341165e-09
5.740203394e-07
-8.012573434e-10
1.298998922e-06
-1.646633042e-09
1.65949001e-06
3.327553545e-09
1.593260782e-06
8.742899041e-07
2.569978125e-10
5.737006523e-07
-1.20032328e-09
1.300395161e-06
-5.73152236e-10
1.658766781e-06
3.980617636e-09
1.588564835e-06
8.782327508e-07
-4.365029499e-10
5.741080866e-07
-1.688141546e-09
1.301551321e-06
-1.424272215e-10
1.657130032e-06
3.749714733e-09
1.584588565e-06
8.818961992e-07
-1.112964753e-09
5.750577928e-07
-1.462873061e-09
1.302027787e-06
1.060562286e-09
1.654490152e-06
4.364245336e-09
1.580860222e-06
8.86402073e-07
-2.759480677e-09
5.781250534e-07
-6.054517473e-09
1.304565561e-06
-3.772208616e-09
1.652753281e-06
2.300404672e-09
1.574411107e-06
8.886528311e-07
-1.91419835e-09
5.799987016e-07
-1.01378377e-09
1.303329382e-06
6.682600228e-09
1.646125498e-06
6.540414043e-09
1.574319272e-06
8.944744839e-07
-1.120254812e-08
5.913127495e-07
-1.553463489e-08
1.307023034e-06
-1.19509323e-08
1.643118287e-06
-2.799685201e-09
1.566340505e-06
8.902276193e-07
-3.62876945e-08
6.275033742e-07
-4.060329119e-08
1.311186925e-06
-2.841588294e-08
1.631044594e-06
-1.197789711e-08
1.550140356e-06
8.779726725e-07
-9.997298817e-08
7.277188938e-07
-1.003831196e-07
1.31197578e-06
-7.469666889e-08
1.605021307e-06
-4.094985548e-08
1.515028001e-06
8.379246338e-07
-7.782363835e-07
1.503714849e-06
-7.345442363e-07
1.271331733e-06
-4.522384695e-07
1.324314173e-06
-1.737419109e-07
1.231905798e-06
6.662986172e-07
8.196497284e-09
1.434632751e-06
5.481750591e-08
4.262685694e-06
1.862926271e-07
6.813192208e-06
6.743073755e-07
8.270758952e-06
6.38677781e-06
2.581822746e-06
1.084409304e-09
1.433149896e-06
1.305431417e-08
4.252051178e-06
8.861405701e-08
6.737397957e-06
5.186535474e-07
7.839997147e-06
5.81440831e-06
1.094435186e-06
2.40100542e-09
1.430917627e-06
2.02225227e-08
4.234123172e-06
1.441919662e-07
6.612735567e-06
6.458122854e-07
7.339031359e-06
5.464327195e-06
9.971393625e-07
3.291774999e-09
1.428135787e-06
2.820854845e-08
4.208654214e-06
2.012486162e-07
6.44081785e-06
7.224316151e-07
6.819508545e-06
5.22996798e-06
9.613749069e-07
4.627685023e-09
1.423540969e-06
4.415438071e-08
4.169077058e-06
2.765346372e-07
6.209393747e-06
7.696443663e-07
6.32853942e-06
5.053624354e-06
9.48280462e-07
7.322540768e-09
1.416225586e-06
6.829040358e-08
4.107841831e-06
3.613325724e-07
5.915773699e-06
7.991018722e-07
5.891554153e-06
4.897526125e-06
9.568343706e-07
1.082105254e-08
1.405257562e-06
9.985675641e-08
4.018934966e-06
4.325689891e-07
5.581248014e-06
8.149831668e-07
5.509863778e-06
4.744026864e-06
9.673082817e-07
1.573937979e-08
1.389120997e-06
1.380650961e-07
3.896496939e-06
4.895631383e-07
5.230042753e-06
8.188136446e-07
5.179801292e-06
4.597850305e-06
9.636393089e-07
2.381575231e-08
1.364694112e-06
1.84383219e-07
3.736510905e-06
5.365393725e-07
4.879047132e-06
8.259575735e-07
4.889278709e-06
4.459542556e-06
9.633439067e-07
3.68154439e-08
1.328101591e-06
2.344554535e-07
3.538923403e-06
5.722035204e-07
4.540690877e-06
8.334815297e-07
4.627323165e-06
4.326206097e-06
9.659532912e-07
5.45286919e-08
1.273495956e-06
2.853875746e-07
3.307396286e-06
6.025847538e-07
4.222366932e-06
8.426527269e-07
4.386317741e-06
4.195870192e-06
9.718981079e-07
7.943445969e-08
1.19286164e-06
3.316540221e-07
3.052888389e-06
6.264785426e-07
3.925596304e-06
8.518083374e-07
4.160152479e-06
4.065136987e-06
9.816487912e-07
9.885465466e-08
1.093377976e-06
3.52866639e-07
2.797337154e-06
6.246640628e-07
3.652120573e-06
8.354430872e-07
3.948581689e-06
3.934908827e-06
9.659220763e-07
1.116047474e-07
9.820100085e-07
3.640713431e-07
2.544739626e-06
6.230163867e-07
3.392633271e-06
8.269489499e-07
3.744085674e-06
3.801236714e-06
9.608151927e-07
1.132606469e-07
8.689523033e-07
3.591171504e-07
2.29952368e-06
6.097489421e-07
3.142274902e-06
8.129348368e-07
3.541571028e-06
3.660492043e-06
9.551722052e-07
1.064529893e-07
7.633973501e-07
3.437395682e-07
2.063672933e-06
5.941410749e-07
2.892280695e-06
8.050587332e-07
3.330065061e-06
3.503316635e-06
9.611090875e-07
9.881347864e-08
6.646741275e-07
3.294728379e-07
1.833156587e-06
5.86045497e-07
2.635879226e-06
8.134845244e-07
3.10267662e-06
3.323577539e-06
9.933447152e-07
8.677254383e-08
5.776513165e-07
2.987471591e-07
1.620636099e-06
5.465757886e-07
2.387386219e-06
7.76392408e-07
2.871914065e-06
3.132022143e-06
9.667414555e-07
7.142349617e-08
5.062908253e-07
2.534714542e-07
1.438359864e-06
4.777200273e-07
2.162297962e-06
6.927313045e-07
2.655533119e-06
2.952020094e-06
8.710469069e-07
5.80605339e-08
4.48209087e-07
2.064894291e-07
1.28975657e-06
3.913703828e-07
1.978066543e-06
5.643571696e-07
2.485686462e-06
2.828543179e-06
6.955043535e-07
5.572061695e-08
3.925511607e-07
2.010289278e-07
1.145505806e-06
3.84974006e-07
1.798818132e-06
5.588963462e-07
2.324044511e-06
2.723707978e-06
6.880758096e-07
4.910762587e-08
3.452706118e-07
1.784855215e-07
1.022705271e-06
3.462081174e-07
1.645237789e-06
5.090946026e-07
2.186906056e-06
2.639396969e-06
6.34757467e-07
3.665127446e-08
3.129015346e-07
1.372879284e-07
9.354440448e-07
2.769736998e-07
1.530104194e-06
4.252545474e-07
2.077221111e-06
2.565609536e-06
5.549152744e-07
2.671468025e-08
2.924422442e-07
1.026730022e-07
8.785632739e-07
2.151058539e-07
1.450860755e-06
3.459983982e-07
1.995541793e-06
2.502921854e-06
4.768320968e-07
1.94011902e-08
2.806445462e-07
7.62017984e-08
8.446928574e-07
1.640525119e-07
1.402046322e-06
2.725151098e-07
1.943318784e-06
2.461044134e-06
3.882860869e-07
1.418239732e-08
2.745423955e-07
5.683507208e-08
8.263921117e-07
1.250430239e-07
1.374709552e-06
2.13627226e-07
1.912823514e-06
2.43480693e-06
3.154478623e-07
1.125996217e-08
2.712696847e-07
4.550549419e-08
8.16070431e-07
1.018651891e-07
1.358402682e-06
1.778936439e-07
1.893202607e-06
2.415677739e-06
2.690981225e-07
9.566111111e-09
2.690739239e-07
3.913776463e-08
8.088394602e-07
8.81352647e-08
1.346387307e-06
1.554902372e-07
1.877561329e-06
2.398315859e-06
2.391936104e-07
9.008127804e-09
2.665938231e-07
3.668576213e-08
8.008875133e-07
8.272203257e-08
1.332891938e-06
1.466053172e-07
1.858985592e-06
2.375613971e-06
2.272479134e-07
9.141191393e-09
2.630227972e-07
3.684008895e-08
7.897548295e-07
8.308935803e-08
1.31411491e-06
1.474109365e-07
1.832809673e-06
2.342637595e-06
2.284924153e-07
9.482109932e-09
2.580243933e-07
3.826574938e-08
7.744960235e-07
8.607043143e-08
1.288547512e-06
1.526180758e-07
1.797183291e-06
2.297500412e-06
2.364871031e-07
9.746575024e-09
2.518172794e-07
3.916203845e-08
7.556416231e-07
8.81332496e-08
1.257093109e-06
1.559580977e-07
1.753428352e-06
2.24202898e-06
2.425506066e-07
9.586545252e-09
2.448825491e-07
3.864283213e-08
7.346769954e-07
8.693680099e-08
1.222150521e-06
1.537963979e-07
1.70484532e-06
2.180418297e-06
2.391056484e-07
9.110010818e-09
2.377631109e-07
3.663646229e-08
7.131419173e-07
8.228195376e-08
1.186285185e-06
1.457324263e-07
1.654994444e-06
2.117173146e-06
2.267090111e-07
8.399252198e-09
2.30786235e-07
3.370306138e-08
6.921070134e-07
7.578707991e-08
1.151264521e-06
1.342651368e-07
1.606310567e-06
2.055377404e-06
2.084075898e-07
7.60439367e-09
2.241514678e-07
3.059017341e-08
6.720933272e-07
6.884189237e-08
1.117971523e-06
1.21742077e-07
1.560041748e-06
1.996625509e-06
1.893502878e-07
6.938138836e-09
2.178784921e-07
2.775606645e-08
6.532288964e-07
6.240400302e-08
1.086610576e-06
1.104952755e-07
1.516471408e-06
1.941300904e-06
1.71655313e-07
6.340793297e-09
2.119671312e-07
2.53617592e-08
6.354513689e-07
5.704588042e-08
1.057079454e-06
1.009219244e-07
1.475456837e-06
1.889218153e-06
1.570289902e-07
5.827200133e-09
2.063634332e-07
2.348107394e-08
6.186487971e-07
5.273087432e-08
1.029196857e-06
9.320372852e-08
1.436744344e-06
1.840051937e-06
1.445231695e-07
5.502506131e-09
2.010520286e-07
2.190971205e-08
6.027153324e-07
4.909286033e-08
1.002769984e-06
8.704174492e-08
1.400061744e-06
1.793451366e-06
1.349282538e-07
5.165215246e-09
1.959968986e-07
2.058772923e-08
5.875841263e-07
4.619169924e-08
9.776791406e-07
8.176193797e-08
1.365226479e-06
1.749183485e-06
1.269514653e-07
4.863089952e-09
1.91190134e-07
1.946613768e-08
5.731821187e-07
4.370047208e-08
9.538014813e-07
7.72600859e-08
1.332071668e-06
1.707034618e-06
1.201958275e-07
4.650822274e-09
1.866032631e-07
1.847648304e-08
5.594642208e-07
4.144026895e-08
9.310567343e-07
7.332295078e-08
1.300480493e-06
1.666852185e-06
1.141622074e-07
4.405010642e-09
1.822336603e-07
1.758006949e-08
5.463782663e-07
3.943712926e-08
9.093569751e-07
6.97656518e-08
1.2703338e-06
1.62848901e-06
1.08688963e-07
4.214632268e-09
1.780561385e-07
1.676259185e-08
5.338832408e-07
3.759072952e-08
8.886324287e-07
6.656561005e-08
1.241530169e-06
1.591817668e-06
1.035111018e-07
4.005026768e-09
1.740673544e-07
1.600915101e-08
5.219380252e-07
3.591880165e-08
8.688175366e-07
6.358819339e-08
1.213983578e-06
1.556731047e-06
9.874865443e-08
3.842599685e-09
1.702478343e-07
1.531300178e-08
5.105086946e-07
3.434967732e-08
8.498507983e-07
6.082935959e-08
1.187605929e-06
1.523118622e-06
9.456306423e-08
3.679036218e-09
1.665897234e-07
1.467065168e-08
4.995531243e-07
3.29026452e-08
8.316722013e-07
5.827866609e-08
1.16231961e-06
1.490883501e-06
9.074657806e-08
3.531420654e-09
1.63078669e-07
1.406648778e-08
4.890470636e-07
3.156363806e-08
8.142323841e-07
5.589784681e-08
1.138052301e-06
1.459937094e-06
8.715866329e-08
3.386449763e-09
1.597078416e-07
1.351545759e-08
4.789507715e-07
3.032310253e-08
7.974742863e-07
5.374833761e-08
1.114729878e-06
1.430184208e-06
8.365640892e-08
3.252764903e-09
1.564645627e-07
1.300352125e-08
4.692446286e-07
2.918023842e-08
7.813576254e-07
5.169416128e-08
1.092293096e-06
1.401553303e-06
8.043977352e-08
3.12636392e-09
1.533463948e-07
1.250714573e-08
4.599043009e-07
2.809668576e-08
7.658496276e-07
4.977806313e-08
1.070699375e-06
1.373988671e-06
7.725543892e-08
3.032200737e-09
1.503446544e-07
1.204787445e-08
4.509188063e-07
2.700802515e-08
7.509250908e-07
4.794335045e-08
1.049913035e-06
1.347446721e-06
7.446079567e-08
2.899735485e-09
1.47454151e-07
1.160536142e-08
4.422595367e-07
2.605557493e-08
7.365435705e-07
4.617088018e-08
1.029879486e-06
1.321859178e-06
7.203744445e-08
2.815058333e-09
1.446653981e-07
1.118163409e-08
4.339099762e-07
2.514616488e-08
7.226717171e-07
4.454439004e-08
1.01055072e-06
1.297165921e-06
6.937209976e-08
2.713685546e-09
1.419760329e-07
1.079616411e-08
4.258514854e-07
2.424721367e-08
7.092840352e-07
4.30016413e-08
9.91894445e-07
1.273325019e-06
6.697512009e-08
2.606025987e-09
1.393759932e-07
1.043243688e-08
4.180651643e-07
2.342957137e-08
6.963438561e-07
4.158357643e-08
9.738569924e-07
1.250269784e-06
6.449573354e-08
2.515126358e-09
1.368669978e-07
1.006788434e-08
4.10545744e-07
2.26149012e-08
6.838479865e-07
4.013025301e-08
9.564367511e-07
1.227997268e-06
6.226440252e-08
2.43621125e-09
1.344361269e-07
9.74337173e-09
4.032641306e-07
2.189595385e-08
6.717427861e-07
3.884537953e-08
9.395565767e-07
1.206410783e-06
6.029755689e-08
2.35152021e-09
1.32092439e-07
9.392327097e-09
3.96238943e-07
2.110081991e-08
6.600648821e-07
3.744872781e-08
9.232706545e-07
1.185578314e-06
5.817619849e-08
2.283858843e-09
1.298127192e-07
9.125006459e-09
3.894092148e-07
2.050329784e-08
6.48707866e-07
3.640038186e-08
9.074283148e-07
1.165309307e-06
5.656890324e-08
2.188950705e-09
1.276226165e-07
8.760846718e-09
3.828435109e-07
1.970533047e-08
6.377909912e-07
3.497797864e-08
8.921983449e-07
1.145818697e-06
5.435317235e-08
2.141056989e-09
1.254815562e-07
8.562323761e-09
3.764288071e-07
1.925504002e-08
6.271216876e-07
3.418127833e-08
8.773100861e-07
1.12676109e-06
5.299752704e-08
2.041192397e-09
1.234455357e-07
8.150373915e-09
3.703232666e-07
1.831230852e-08
6.169671256e-07
3.253741989e-08
8.631390462e-07
1.108619164e-06
5.049169233e-08
2.025401433e-09
1.214198101e-07
8.111713144e-09
3.642545838e-07
1.820781959e-08
6.068718427e-07
3.233329917e-08
8.490481097e-07
1.090574219e-06
5.036285712e-08
1.902489573e-09
1.195237311e-07
7.595413268e-09
3.585657044e-07
1.707465872e-08
5.974082162e-07
3.031010804e-08
8.358391457e-07
1.073664469e-06
4.722106262e-08
1.975403657e-09
1.175511693e-07
7.894402489e-09
3.526568408e-07
1.774889497e-08
5.875748636e-07
3.150116961e-08
8.221048619e-07
1.056058233e-06
4.910383154e-08
1.777312634e-09
1.157791691e-07
7.1154255e-09
3.473254649e-07
1.602436105e-08
5.786871159e-07
2.847910757e-08
8.096728158e-07
1.040112739e-06
4.445774602e-08
2.144562435e-09
1.136378798e-07
8.548400443e-09
3.409307084e-07
1.920346561e-08
5.680566755e-07
3.40545975e-08
7.948384986e-07
1.02108412e-06
5.312498604e-08
1.573676428e-09
6.340418245e-09
1.428952334e-08
2.537451931e-08
3.951532424e-08
1.376920082e-06
1.210316057e-06
1.415895212e-06
1.051716514e-06
1.442261209e-06
9.670384554e-07
1.459625152e-06
9.419879158e-07
1.468126705e-06
9.405096242e-07
1.466852878e-06
9.581177185e-07
1.456785432e-06
9.769798993e-07
1.442337427e-06
9.77576191e-07
1.425273077e-06
9.80209314e-07
1.405657151e-06
9.85358889e-07
1.383706707e-06
9.935431568e-07
1.358506129e-06
1.006664184e-06
1.330807835e-06
9.929565763e-07
1.300139684e-06
9.914937483e-07
1.265242854e-06
9.903389101e-07
1.223540969e-06
1.003826256e-06
1.172839328e-06
1.043506922e-06
1.11599089e-06
1.023086387e-06
1.064687251e-06
9.211322565e-07
1.035511308e-06
7.291451984e-07
1.018321918e-06
7.170341553e-07
1.005469279e-06
6.664259613e-07
9.925406415e-07
5.922670184e-07
9.788674688e-07
5.184127795e-07
9.693254421e-07
4.292359877e-07
9.627860943e-07
3.527463881e-07
9.571567028e-07
3.044551937e-07
9.512917788e-07
2.711862342e-07
9.428089858e-07
2.58310203e-07
9.30050846e-07
2.606635094e-07
9.124044186e-07
2.699819102e-07
8.906363274e-07
2.756211369e-07
8.664137206e-07
2.720007631e-07
8.41512282e-07
2.577178616e-07
8.17158944e-07
2.377020369e-07
7.939786188e-07
2.156533117e-07
7.721437331e-07
1.956422573e-07
7.515781483e-07
1.786586451e-07
7.321604557e-07
1.652494722e-07
7.137490577e-07
1.540807623e-07
6.962521894e-07
1.447537114e-07
6.795867255e-07
1.368155892e-07
6.636900585e-07
1.298353671e-07
6.485059106e-07
1.235727713e-07
6.339861872e-07
1.180010104e-07
6.20089286e-07
1.128600073e-07
6.067706152e-07
1.079793071e-07
5.939929354e-07
1.03407702e-07
5.817222375e-07
9.917971515e-08
5.699218082e-07
9.540895239e-08
5.585635364e-07
9.184685846e-08
5.476254428e-07
8.855812269e-08
5.370912652e-07
8.523102266e-08
5.269321134e-07
8.201477899e-08
5.17127613e-07
7.92293206e-08
5.076578841e-07
7.645351652e-08
4.985001203e-07
7.404295884e-08
4.896496871e-07
7.14774291e-08
4.810712671e-07
6.920667732e-08
4.727891945e-07
6.670275655e-08
4.647305931e-07
6.483694436e-08
4.569790653e-07
6.231283185e-08
4.493989389e-07
6.097857489e-08
4.421830771e-07
5.800876169e-08
4.350013007e-07
5.76031275e-08
4.282782152e-07
5.399045252e-08
4.212615987e-07
5.618861317e-08
4.149204075e-07
5.08067377e-08
4.073017751e-07
6.074849242e-08
4.504851585e-08
-4.518832365e-07
3.157312369e-06
-7.370834066e-07
1.565823084e-06
-6.108735068e-07
1.191713853e-06
-3.921693259e-07
1.021559529e-06
6.087035464e-07
-3.440306364e-07
4.287640426e-07
3.781731773e-06
-1.171829718e-07
2.117769929e-06
-2.31890157e-07
1.298637506e-06
-2.076758842e-07
1.00418065e-06
7.1823074e-07
-3.203729827e-07
5.702966012e-07
4.176597368e-06
1.072380234e-07
2.581625926e-06
-1.310463677e-07
1.526887706e-06
-2.647687367e-07
1.160061324e-06
8.938444902e-07
-4.478302059e-07
6.343104689e-07
4.484392311e-06
2.614410293e-07
2.955707727e-06
-3.568699145e-08
1.825509966e-06
-2.439660132e-07
1.368458991e-06
1.126070109e-06
-4.860809131e-07
7.090723985e-07
4.717540241e-06
3.997275624e-07
3.265018546e-06
7.743563615e-08
2.150648205e-06
-1.354298091e-07
1.575788655e-06
1.340241067e-06
-3.51456219e-07
7.839194316e-07
4.891948513e-06
5.147778125e-07
3.534715834e-06
2.085305361e-07
2.457129208e-06
6.068643823e-09
1.776588043e-06
1.527870563e-06
-1.81006896e-07
8.491426914e-07
5.018347921e-06
6.081128124e-07
3.773110377e-06
3.232933463e-07
2.741111202e-06
1.121101891e-07
1.983767574e-06
1.711470454e-06
-6.526651828e-08
8.823529193e-07
5.11018158e-06
6.708938113e-07
3.981715221e-06
4.072263916e-07
3.003840213e-06
1.779988328e-07
2.210235679e-06
1.889948105e-06
3.24804242e-09
9.130896378e-07
5.175897354e-06
7.300363147e-07
4.162664125e-06
4.90545438e-07
3.243520032e-06
2.444473191e-07
2.454094259e-06
2.063655676e-06
6.871092563e-08
9.431312346e-07
5.217726342e-06
7.903215052e-07
4.317483758e-06
5.744076269e-07
3.458862941e-06
3.44738961e-07
2.687524263e-06
2.234112841e-06
1.721211494e-07
9.721970481e-07
5.238168116e-06
8.448382479e-07
4.445776305e-06
6.540323149e-07
3.649260333e-06
4.375045057e-07
2.904895813e-06
2.397244279e-06
2.754848869e-07
1.009222214e-06
5.234073781e-06
9.087760657e-07
4.544967502e-06
7.402384099e-07
3.815332854e-06
5.344730821e-07
3.108745649e-06
2.563208726e-06
3.692165893e-07
1.015608248e-06
5.210036309e-06
9.397140486e-07
4.619431763e-06
7.987066834e-07
3.957989715e-06
6.088753642e-07
3.294577845e-06
2.737959195e-06
4.329763591e-07
1.037535452e-06
5.165627336e-06
9.867504331e-07
4.669996639e-06
8.699507042e-07
4.075461316e-06
7.131240717e-07
3.454573619e-06
2.902756441e-06
5.470159409e-07
1.062307513e-06
5.095390032e-06
1.04254343e-06
4.689029796e-06
9.556524719e-07
4.162305295e-06
8.276293278e-07
3.58604127e-06
3.046114015e-06
6.849818263e-07
1.106570222e-06
4.994717053e-06
1.126901005e-06
4.671647035e-06
1.080161237e-06
4.206576738e-06
9.938745181e-07
3.67154656e-06
3.144586837e-06
9.006285049e-07
1.187372204e-06
4.8502525e-06
1.253405634e-06
4.605214982e-06
1.26760436e-06
4.193618032e-06
1.247656411e-06
3.692794446e-06
3.17821287e-06
1.209892558e-06
1.197022242e-06
4.673646579e-06
1.299796592e-06
4.496827626e-06
1.350816666e-06
4.131224161e-06
1.373468124e-06
3.652973029e-06
3.149750428e-06
1.387427095e-06
1.069316834e-06
4.521947509e-06
1.121670955e-06
4.438434845e-06
1.085394838e-06
4.157348579e-06
9.93165934e-07
3.729329499e-06
3.19842639e-06
9.278512872e-07
7.601987202e-07
4.520074839e-06
6.417217915e-07
4.617225032e-06
3.975811373e-07
4.531384828e-06
1.192635276e-07
4.31640184e-06
3.997556025e-06
6.789128403e-08
7.451172618e-07
4.564513802e-06
6.114911667e-07
4.873493922e-06
3.236746818e-07
5.023201954e-06
-9.363621532e-08
5.084165589e-06
5.121508331e-06
-6.155380615e-07
7.031171219e-07
4.635465109e-06
5.893185448e-07
5.153014021e-06
3.28667493e-07
5.529294706e-06
-5.736385432e-08
5.828164764e-06
6.109388209e-06
-5.331538426e-07
6.790416835e-07
4.680800696e-06
6.452983056e-07
5.378552066e-06
4.840142691e-07
5.954584678e-06
2.063764642e-07
6.45455095e-06
6.91579203e-06
-1.576759477e-07
6.55188753e-07
4.693060063e-06
7.079684514e-07
5.528433371e-06
6.64842262e-07
6.261053064e-06
5.314119214e-07
6.914432532e-06
7.507129877e-06
3.259548924e-07
5.814967255e-07
4.696139832e-06
6.918537734e-07
5.621335707e-06
7.460378714e-07
6.459019244e-06
7.417659055e-07
7.217620546e-06
7.902031354e-06
6.85135203e-07
5.12441994e-07
4.689780902e-06
6.623630186e-07
5.665584335e-06
7.883260571e-07
6.566233398e-06
8.834232648e-07
7.390335066e-06
8.134476306e-06
9.456993091e-07
4.635221978e-07
4.67468921e-06
6.332816067e-07
5.674913689e-06
8.018240373e-07
6.608140746e-06
9.610472039e-07
7.468189422e-06
8.247815939e-06
1.10423681e-06
4.241865564e-07
4.651625583e-06
5.968777897e-07
5.661062434e-06
7.808826703e-07
6.608435928e-06
9.679768946e-07
7.485620967e-06
8.284131367e-06
1.150612129e-06
4.094435449e-07
4.612807627e-06
5.851318915e-07
5.621407605e-06
7.785416292e-07
6.571124406e-06
9.826432979e-07
7.453307827e-06
8.259438503e-06
1.189518618e-06
4.146987778e-07
4.552089391e-06
5.962422821e-07
5.552398287e-06
7.99242646e-07
6.496428143e-06
1.017113475e-06
7.375677803e-06
8.182148572e-06
1.242425584e-06
4.29755111e-07
4.467374624e-06
6.189191391e-07
5.453529455e-06
8.316837117e-07
6.38625988e-06
1.061564611e-06
7.257499206e-06
8.059937582e-06
1.301513936e-06
4.396302482e-07
4.362510091e-06
6.336533686e-07
5.330039243e-06
8.524054733e-07
6.24752542e-06
1.089671763e-06
7.107440847e-06
7.903136713e-06
1.338333255e-06
4.339922716e-07
4.245509891e-06
6.262465828e-07
5.191575957e-06
8.434522189e-07
6.091362897e-06
1.079694521e-06
6.937904958e-06
7.725116061e-06
1.328040473e-06
4.117975987e-07
4.124994516e-06
5.948295298e-07
5.048414524e-06
8.024258825e-07
5.929404971e-06
1.028457753e-06
6.761529598e-06
7.539208591e-06
1.267195048e-06
3.796798109e-07
4.006926929e-06
5.492718519e-07
4.907725681e-06
7.418295141e-07
5.769762253e-06
9.524239112e-07
6.587115263e-06
7.354610783e-06
1.175455633e-06
3.449319331e-07
3.894448816e-06
4.993807995e-07
4.773369939e-06
6.75408185e-07
5.616888552e-06
8.683297693e-07
6.419522823e-06
7.176474617e-06
1.073643496e-06
3.129002418e-07
3.788434036e-06
4.534200418e-07
4.646487336e-06
6.136988238e-07
5.472137873e-06
7.902584246e-07
6.260315346e-06
7.006527687e-06
9.78583876e-07
2.85979702e-07
3.688554287e-06
4.145621442e-07
4.526762758e-06
5.616781355e-07
5.335249416e-06
7.239953117e-07
6.109297322e-06
6.844705366e-06
8.98023722e-07
2.640451077e-07
3.594213015e-06
3.828560627e-07
4.41352948e-06
5.191842575e-07
5.205518685e-06
6.698474787e-07
5.96578103e-06
6.69038716e-06
8.320710268e-07
2.463661247e-07
3.504736121e-06
3.574078449e-07
4.306001596e-06
4.849483148e-07
5.082090433e-06
6.264040525e-07
5.82889971e-06
6.542745076e-06
7.789993006e-07
2.316301811e-07
3.419670308e-06
3.362510467e-07
4.203647349e-06
4.564489527e-07
4.964393774e-06
5.902583856e-07
5.69808303e-06
6.401253845e-06
7.348720247e-07
2.191505116e-07
3.338605585e-06
3.182596109e-07
4.105984186e-06
4.324034789e-07
4.851896985e-06
5.596512849e-07
5.57277118e-06
6.265360809e-06
6.976034409e-07
2.081149177e-07
3.261259726e-06
3.023578112e-07
4.012685156e-06
4.11174902e-07
4.744247551e-06
5.325785814e-07
5.452610556e-06
6.134734689e-06
6.646705911e-07
1.982088193e-07
3.187342444e-06
2.881467778e-07
3.923409448e-06
3.921205837e-07
4.641070632e-06
5.084415018e-07
5.337213078e-06
6.008983207e-06
6.352025082e-07
1.891764699e-07
3.116616819e-06
2.752038593e-07
3.837879375e-06
3.74803003e-07
4.542068373e-06
4.864205389e-07
5.226275996e-06
5.887822416e-06
6.083421443e-07
1.808606954e-07
3.048885432e-06
2.632426082e-07
3.755875166e-06
3.588208793e-07
4.447007397e-06
4.660146664e-07
5.119564338e-06
5.771031381e-06
5.834605649e-07
1.731819041e-07
2.9839387e-06
2.521935207e-07
3.677152326e-06
3.440329636e-07
4.355620924e-06
4.471792195e-07
5.016801241e-06
5.658332823e-06
5.604166406e-07
1.660463728e-07
2.921602359e-06
2.419462664e-07
3.601515464e-06
3.302435573e-07
4.267700804e-06
4.296043401e-07
4.917779184e-06
5.549533831e-06
5.388785019e-07
1.594134371e-07
2.861706959e-06
2.324126416e-07
3.528766557e-06
3.174024478e-07
4.183032774e-06
4.132627041e-07
4.822276788e-06
5.444415156e-06
5.187803502e-07
1.532808231e-07
2.804082124e-06
2.236093051e-07
3.458713948e-06
3.055094571e-07
4.101409021e-06
3.981045582e-07
4.730081069e-06
5.342769175e-06
5.001100432e-07
1.475648146e-07
2.748588756e-06
2.153396148e-07
3.391192953e-06
2.944217392e-07
4.022651864e-06
3.838604853e-07
4.641007021e-06
5.244415853e-06
4.826214598e-07
1.42117723e-07
2.69512557e-06
2.075050425e-07
3.326087714e-06
2.838668354e-07
3.946632069e-06
3.70323416e-07
4.554921111e-06
5.149222314e-06
4.659523322e-07
1.369111868e-07
2.64360937e-06
1.999818644e-07
3.26330229e-06
2.737339001e-07
3.873249415e-06
3.572975844e-07
4.47172321e-06
5.057095781e-06
4.499021398e-07
1.320432905e-07
2.593917223e-06
1.929460775e-07
3.202696105e-06
2.641927583e-07
3.802348423e-06
3.450833409e-07
4.391251364e-06
4.967871949e-06
4.347566474e-07
1.274551493e-07
2.54592935e-06
1.863143807e-07
3.144125151e-06
2.552533987e-07
3.733769194e-06
3.335616417e-07
4.313333133e-06
4.881374268e-06
4.205242537e-07
1.230570114e-07
2.499575639e-06
1.799405942e-07
3.087511783e-06
2.466254541e-07
3.667428074e-06
3.224421877e-07
4.23788464e-06
4.797523748e-06
4.067331006e-07
1.189604423e-07
2.454718612e-06
1.740557596e-07
3.032688039e-06
2.386417115e-07
3.603132906e-06
3.121791904e-07
4.164695147e-06
4.716094073e-06
3.940012106e-07
1.148694935e-07
2.411368448e-06
1.681108931e-07
2.979675963e-06
2.30575247e-07
3.540917889e-06
3.017579669e-07
4.093813732e-06
4.637155781e-06
3.81026611e-07
1.112717521e-07
2.369323407e-06
1.629069568e-07
2.928223868e-06
2.235426437e-07
3.480487945e-06
2.926839086e-07
4.024905442e-06
4.560335872e-06
3.697792499e-07
1.073150608e-07
2.328737067e-06
1.571339316e-07
2.878533507e-06
2.156914536e-07
3.422090995e-06
2.82516582e-07
3.958267073e-06
4.485984614e-06
3.570625518e-07
1.043469509e-07
2.289223052e-06
1.528617761e-07
2.830125966e-06
2.099017496e-07
3.365163025e-06
2.75044947e-07
3.893253684e-06
4.413379579e-06
3.478015583e-07
1.00286178e-07
2.251216512e-06
1.469688693e-07
2.783545802e-06
2.018371101e-07
3.310353677e-06
2.645809611e-07
3.830621237e-06
4.343384181e-06
3.34684941e-07
9.804333696e-08
2.214035171e-06
1.43708061e-07
2.737950347e-06
1.97466688e-07
3.256667772e-06
2.589341186e-07
3.769224577e-06
4.274708893e-06
3.277069873e-07
9.33469953e-08
2.178622067e-06
1.36858257e-07
2.694504089e-06
1.881036785e-07
3.205488486e-06
2.467392677e-07
3.710663294e-06
4.209163956e-06