/*--------------------------------*- C++ -*----------------------------------*\
  =========                 |
  \\      /  F ield         | OpenFOAM: The Open Source CFD Toolbox
   \\    /   O peration     | Website:  https://openfoam.org
    \\  /    A nd           | Version:  10
     \\/     M anipulation  |
\*---------------------------------------------------------------------------*/
FoamFile
{
    format      ascii;
    class       volScalarField;
    location    "0.02498436188";
    object      T;
}
// * * * * * * * * * * * * * * * * * * * * * * * * * * * * * * * * * * * * * //

dimensions      [0 0 0 1 0 0 0];

internalField   nonuniform List<scalar> 
5170
(
293.9967033
293.9960798
293.9964621
293.9990635
294.0298564
293.9639219
293.9637858
293.9650447
293.9746959
294.0286956
293.9444531
293.9450534
293.9486807
293.9685993
294.0438458
293.9277437
293.9292851
293.9360847
293.9670973
294.0612131
293.9079744
293.9106806
293.9213824
293.9641114
294.0747952
293.8883644
293.8923677
293.9073123
293.9620413
294.08669
293.8693852
293.8749654
293.894535
293.961708
294.0971003
293.851239
293.8583532
293.8832837
293.9628935
294.1057967
293.8342375
293.8427743
293.8722753
293.9656675
294.1130042
293.8180025
293.8279124
293.8618048
293.9690595
294.1197497
293.8017367
293.8136352
293.856462
293.9726496
294.1244902
293.7857358
293.7996958
293.8495833
293.9762322
294.1262342
293.770218
293.7862793
293.8418753
293.9798026
294.1263861
293.7554058
293.7735971
293.8348654
293.9834455
294.1254763
293.7411567
293.7618701
293.829718
293.987176
294.1235841
293.7277396
293.7509713
293.8269757
293.9910245
294.1195109
293.7148342
293.7408186
293.8252443
293.9942751
294.11601
293.7020175
293.7307871
293.8243741
293.9972275
294.1093053
293.6826708
293.7120018
293.8197066
293.9977016
294.1088841
293.6335687
293.6737238
293.7996813
294.0190226
294.2771817
1908.436531
1908.341478
1908.345868
1908.267448
1908.240749
1923.593819
1921.842231
1921.860456
1921.950133
1924.179084
1931.447545
1929.427041
1929.441977
1930.049093
1932.552323
1935.901818
1934.010709
1933.973097
1934.913654
1937.077149
1938.707745
1937.027463
1936.977698
1937.934475
1939.949241
1940.366482
1939.039721
1938.921813
1939.904691
1941.577794
1941.814501
1940.416258
1940.297501
1941.194649
1942.641051
1942.684368
1941.664272
1941.531187
1942.150697
1943.624224
1943.523637
1942.488523
1942.371524
1943.117874
1944.474443
1944.290772
1943.331116
1943.205975
1943.931581
1945.005286
1944.840514
1944.060559
1943.946511
1944.597086
1945.413336
1945.249211
1944.680511
1944.600561
1945.07296
1945.756915
1945.579827
1945.080407
1945.023953
1945.478034
1946.079844
1945.888858
1945.444818
1945.414237
1945.817495
1946.371454
1946.179503
1945.760685
1945.744373
1946.12674
1946.637459
1946.444346
1946.057337
1946.050155
1946.408813
1946.872429
1946.687562
1946.337707
1946.339609
1946.669849
1947.088867
1946.899273
1946.598717
1946.611145
1946.909759
1947.278483
1947.107583
1946.843613
1946.854419
1947.093683
1947.384184
1951.865947
1948.092654
1946.287387
1944.747807
1941.563467
293.5724801
293.6533698
294.3152255
302.2189048
402.9822565
293.6028281
293.8013102
295.8723414
315.8455647
456.4476658
293.6731316
294.1605346
298.9470889
334.5352655
495.6998838
293.8242268
294.8863845
304.0928783
357.6155685
527.1085499
294.1211858
296.2056728
311.9369719
383.6333852
552.6619592
294.6919567
298.568685
323.3335268
410.7553454
574.9953117
295.7453453
302.5654568
338.5479056
438.0205432
596.7973348
297.5939311
308.825162
357.2882965
465.0686516
618.70246
300.7420963
318.134386
379.0900577
491.6154868
640.135634
305.9541135
331.2183482
403.3626076
517.9310901
661.3514933
314.4351811
348.9400022
429.7642074
544.2312161
682.4586125
328.4448909
371.7468937
457.7358401
570.8715283
703.8426351
350.8479171
399.5861181
487.4326288
598.2456919
726.0507541
380.8016617
431.5954409
518.7673786
626.360704
748.8931666
420.1667317
468.7816387
552.5527791
655.7622899
772.7601321
465.9798148
510.4382209
589.274831
687.3005895
798.401402
518.6483264
558.3137377
630.9258362
722.5526086
826.9513374
579.1442267
613.3254824
678.4068522
762.7548769
860.3592442
642.828735
672.3153613
730.5942698
808.3716064
899.9240474
709.7768138
735.4146711
786.7892221
855.851984
937.0112683
778.1956622
798.329718
838.3433036
890.8706098
950.0809026
831.9593302
843.1609153
865.5257576
894.4978463
925.9198534
837.5901833
841.8989585
850.2833299
860.5568896
870.4915588
797.2442721
797.8224171
798.4742287
798.2846608
796.2822621
730.5122346
729.5080197
726.9065861
722.43908
715.8658608
656.0008342
654.5917303
651.2904027
646.0599535
638.896452
591.0092308
589.7130368
586.6942354
582.0062602
575.7405798
536.5557564
535.4883777
533.0281859
529.2474251
524.2501817
492.8483486
492.0201403
490.1242507
487.2261275
483.4138149
458.6270207
458.0042081
456.5847622
454.4204916
451.5779312
432.2453738
431.7835613
430.734456
429.1363599
427.0366717
412.1032783
411.760835
410.9850074
409.8033755
408.2485667
396.8015982
396.5444132
395.9634266
395.0785035
393.9117868
385.1977274
385.0001359
384.5552197
383.8776635
382.9825478
376.3963152
376.2399122
375.8891794
375.3553619
374.648811
369.7001679
369.5722532
369.2866955
368.8524992
368.276951
364.5595789
364.4516347
364.2116775
363.8472476
363.3636416
360.5408995
360.4472841
360.2400087
359.9256071
359.508052
357.3097718
357.2268983
357.0439807
356.7667814
356.3984633
354.6194258
354.5450199
354.3810987
354.1328713
353.8029069
352.296621
352.2291496
352.0807568
351.8561483
351.5574576
350.2257466
350.1642175
350.0290096
349.8243954
349.5522045
348.3331029
348.2767785
348.1530742
347.965879
347.7167765
346.5732712
346.521586
346.408091
346.2363312
346.0077018
344.9186024
344.8710875
344.7667496
344.6088213
344.3985429
343.3520672
343.3083105
343.2122277
343.0667682
342.873036
341.862686
341.8223296
341.73372
341.5995503
341.4208056
340.442889
340.4056307
340.3237997
340.1998755
340.0347268
339.0871307
339.0526843
338.9770213
338.8624141
338.7096437
337.7908906
337.759006
337.6889579
337.5828352
337.4413498
336.5501341
336.5205789
336.4556471
336.3572681
336.2260605
335.3621015
335.3346758
335.2744206
335.1831057
335.0613105
334.2232217
334.1977454
334.14176
334.0569074
333.9437103
333.130587
333.1068916
333.0548168
332.9758759
332.8705456
332.0814848
332.0594112
332.0109209
331.9374047
331.8392873
331.0733966
331.0528315
331.0076228
330.9390829
330.8475892
330.1040659
330.0848756
330.042691
329.9787193
329.8933165
329.1713873
329.153461
329.1140529
329.0542856
328.9744822
328.2734133
328.2566494
328.2197974
328.1639014
328.0892546
327.4082085
327.3925193
327.3580201
327.3056899
327.2357921
326.5739515
326.5592494
326.5269229
326.4778815
326.4123772
325.7686577
325.7548676
325.7245468
325.6785441
325.6170918
324.9907274
324.977784
324.949326
324.9061438
324.8484524
324.2383991
324.2262425
324.1995081
324.1589404
324.1047339
323.5108123
323.4993899
323.4742667
323.4361392
323.3851906
322.8062736
322.795532
322.771905
322.7360485
322.6881239
322.1254797
322.1153756
322.0931541
322.0594255
322.0143428
321.4669663
321.4574498
321.436519
321.4047477
321.3622789
320.8415705
320.832601
320.8128745
320.7829303
320.7429008
320.3047258
320.2962015
320.277451
320.2489864
320.2109323
671.5791271
680.6776504
687.358842
695.7021299
704.4942379
714.5127712
726.7173254
740.7852983
755.263887
770.2710771
785.7741973
802.0744282
819.7325827
838.0498372
857.5004996
878.6957395
902.4498883
931.5468874
967.5134229
996.1274887
990.887527
946.392066
876.0727878
793.8421264
710.6027595
633.3847097
571.0251081
520.5150812
480.5678219
449.452043
425.4597515
407.0737118
393.0232271
382.2943121
374.0998129
367.824781
362.9797697
359.1736423
356.1013303
353.5353346
351.3143826
349.3301721
347.5132151
345.8206648
344.2263624
342.7143242
341.2742817
339.899336
338.5843562
337.3252567
336.1184162
334.9613162
333.8507345
332.7840292
331.7586854
330.7724225
329.8231387
328.9088969
328.0278985
327.1783401
326.3584999
325.5665371
324.8009885
324.0601401
323.3432785
322.6487012
321.9772543
321.3273323
320.7099579
320.1796113
1173.329695
1961.493452
1919.519898
1797.404419
1463.045032
1058.752446
1646.194067
1967.649019
1728.926355
1256.597297
1005.568927
1489.838062
1968.837125
1752.365441
1215.49211
974.7330914
1409.476098
1912.962426
1817.133784
1349.223565
955.0270952
1349.254617
1794.586579
1882.142292
1527.970716
942.9604857
1303.706032
1703.240658
1923.289301
1678.057961
937.1480016
1270.782161
1641.974877
1939.068824
1796.274113
936.2616437
1246.840646
1593.152922
1929.434501
1875.900767
937.8103876
1227.652042
1548.779505
1874.807799
1920.962951
941.5506136
1213.014354
1512.894121
1824.252164
1946.864003
947.1200469
1202.886521
1485.552843
1783.41607
1958.606899
954.6450979
1196.559785
1463.262181
1746.541084
1959.368342
964.3723438
1193.475675
1444.133336
1709.329444
1934.329425
975.1194139
1191.816505
1427.500717
1676.319519
1899.100135
987.3189197
1192.388563
1414.445357
1649.244084
1867.275738
1001.490895
1195.502811
1404.82024
1626.076627
1837.427557
1017.824011
1200.490164
1397.706591
1607.329919
1812.898645
1040.136033
1214.330284
1404.651407
1609.566549
1812.016794
1070.646281
1240.479827
1430.147512
1638.604712
1842.657423
1085.795259
1228.372051
1378.993308
1548.345523
1770.740167
1052.698209
1137.333926
1203.86123
1242.395613
1239.792398
978.2831496
1010.578638
1018.61708
996.270538
940.7254312
886.4449567
886.6885434
867.2799786
827.7588375
770.6302368
792.5853891
778.4151211
751.1463342
712.2736179
664.9260813
705.0587291
687.5049804
661.3344428
628.4581633
591.320296
627.1015086
610.9448108
589.1375
563.3428456
535.3247955
565.5392865
552.3118604
535.1688213
515.4210461
494.324416
516.1183535
505.8368131
492.7617277
477.8714033
462.0520271
477.1882774
469.4043855
459.5866313
448.4431179
436.5973035
446.9052324
441.0879969
433.7695303
425.4515475
416.5704411
423.5507432
419.2155094
413.7603248
407.5347541
400.8422094
405.6317358
402.3776243
398.2791889
393.5772869
388.4819278
391.9125661
389.4287182
386.30086
382.6941635
378.7538724
381.4139575
379.4710734
377.0304384
374.2052565
371.0962605
373.3779822
371.8130025
369.8573667
367.5888923
365.0778145
367.2125903
365.9124633
364.3001359
362.4293879
360.349632
362.4451502
361.3333911
359.9666849
358.3826474
356.6165584
358.6964633
357.7225324
356.5353554
355.1617566
353.6275206
355.6693225
354.8004915
353.7488902
352.5341978
351.1758425
353.1409181
352.3561101
351.4111169
350.3209121
349.1006421
350.9527168
350.2380854
349.3804742
348.3917033
347.2839955
348.9978176
348.3438328
347.5604643
346.6573676
345.644685
347.207485
346.6071281
345.8885566
345.0598763
344.1296964
345.5391568
344.9868499
344.3258486
343.5630797
342.7059765
343.9669516
343.4580232
342.8487339
342.1450892
341.3535683
342.4750205
342.0054121
341.442882
340.7926803
340.0604927
341.0533178
340.6194384
340.0993624
339.4977071
338.819492
339.6950385
339.2936974
338.8122871
338.2548792
337.6259157
338.3952828
338.0236088
337.5774696
337.0604734
336.4765492
337.150086
336.8054925
336.3915803
335.9115467
335.3688844
335.9558913
335.6360517
335.2516253
334.8054543
334.3006423
334.8104192
334.5132219
334.1557936
333.7406578
333.2705809
333.7104566
333.4339951
333.1013113
332.7146523
332.2764868
332.6534538
332.3960065
332.0860311
331.7255346
331.3167223
331.6370233
331.3970353
331.1079278
330.7714962
330.3897139
330.6589434
330.435003
330.1650921
329.8508189
329.4939518
329.7171934
329.5080209
329.2557898
328.9619422
328.6280657
328.8098813
328.6143067
328.3783663
328.1033568
327.7907048
327.935269
327.7522306
327.5313201
327.2737051
326.9806696
327.0915899
326.9201117
326.7130687
326.4715142
326.1966057
326.2772067
326.1164106
325.9221919
325.6955002
325.437383
325.4902718
325.3393534
325.1569971
324.9440636
324.7015016
324.7293916
324.5876521
324.4163202
324.2161786
323.9880849
323.9928679
323.8596439
323.6985423
323.5102768
323.295627
323.280048
323.1547858
323.0032534
322.8261008
322.6240371
322.5892323
322.4713698
322.3287341
322.161919
321.9715679
321.921311
321.8103982
321.676125
321.5190282
321.3396942
321.2746382
321.1701192
321.0435487
320.8954178
320.7262604
320.6602768
320.5617305
320.4423647
320.3026265
320.1429992
320.1323724
320.0386446
319.9250972
319.7921422
319.6402259
454.8932129
301.9259113
291.9182368
291.1721616
291.056585
291.0236642
291.0108723
291.0054416
291.0031026
291.0021085
291.0016956
291.0015263
291.0014608
291.0014373
291.0014321
291.0014455
291.0014437
291.0014256
291.0014193
291.0014154
291.0014114
291.0014065
291.0014002
291.0013925
291.0013831
291.0013719
291.001359
291.001344
291.0013267
291.0013071
291.0012851
291.0012607
291.0012341
291.0012061
291.0011767
291.0011457
291.001114
291.0010833
291.001054
291.0010259
291.0010008
291.0009797
291.0009631
291.0009523
291.0009477
291.0009497
291.0009587
291.0009747
291.0009975
291.0010266
291.0010614
291.0011003
291.0011429
291.0011866
291.0012304
291.0012681
291.0012854
291.0012228
291.0009367
291.000532
567.0536966
321.7145667
293.6915085
291.4259489
291.1315649
291.0592676
291.0326551
291.0207348
291.0150111
291.012229
291.0108851
291.0102388
291.0099229
291.0097622
291.0096773
291.0096437
291.0095963
291.0095242
291.0094761
291.0094358
291.0093989
291.0093642
291.0093315
291.0093006
291.0092714
291.0092436
291.0092163
291.0091893
291.0091621
291.0091343
291.0091056
291.0090757
291.0090448
291.0090129
291.0089803
291.0089472
291.0089141
291.0088814
291.00885
291.0088205
291.008794
291.0087711
291.0087527
291.0087395
291.0087323
291.0087317
291.0087382
291.0087517
291.0087722
291.0087987
291.0088311
291.0088677
291.008908
291.0089495
291.0089908
291.0090243
291.0090339
291.008973
291.0088104
291.0086777
622.2870581
339.3440693
295.1046829
291.5856348
291.1754983
291.0835499
291.0509644
291.0360313
291.028244
291.0240127
291.0217039
291.0204448
291.0197545
291.0193663
291.0191382
291.0190106
291.0188938
291.0187612
291.0186629
291.0185788
291.0185022
291.0184314
291.0183663
291.0183067
291.0182527
291.0182037
291.0181589
291.0181174
291.0180783
291.018041
291.0180048
291.0179691
291.0179339
291.0178987
291.0178635
291.0178283
291.0177936
291.0177593
291.0177262
291.0176949
291.0176662
291.0176409
291.0176197
291.0176037
291.0175933
291.0175892
291.0175917
291.017601
291.017617
291.0176393
291.0176674
291.0177001
291.0177364
291.0177745
291.0178129
291.0178467
291.0178721
291.0178921
291.0179902
291.0181525
788.0721788
411.3469847
302.5208801
291.9475122
291.2084146
291.0961195
291.0620777
291.0467205
291.0383517
291.0334627
291.0305332
291.0287675
291.0277053
291.0270604
291.0266605
291.0264166
291.0262242
291.0260431
291.0259075
291.0257921
291.0256877
291.0255922
291.0255055
291.0254276
291.0253585
291.0252973
291.025243
291.0251945
291.0251506
291.0251103
291.0250725
291.0250365
291.0250017
291.0249677
291.0249338
291.0249002
291.0248669
291.0248339
291.0248014
291.0247702
291.024741
291.0247144
291.0246913
291.0246725
291.0246587
291.0246507
291.0246487
291.0246532
291.024664
291.024681
291.0247039
291.0247314
291.0247629
291.0247967
291.024832
291.0248676
291.0249113
291.0249961
291.025224
291.025481
994.4474118
540.7986339
335.9548983
294.7332699
291.4203892
291.127749
291.0728694
291.0538891
291.0446176
291.0393086
291.0360442
291.0339776
291.0326608
291.0318168
291.0312718
291.0309269
291.0306735
291.0304635
291.0303109
291.0301843
291.030072
291.0299709
291.0298803
291.0298003
291.0297307
291.0296705
291.0296184
291.0295732
291.0295335
291.0294981
291.0294658
291.0294358
291.0294071
291.0293791
291.0293511
291.0293229
291.0292943
291.0292653
291.029236
291.029207
291.0291789
291.0291523
291.029128
291.0291068
291.0290897
291.0290773
291.0290702
291.0290688
291.0290734
291.0290838
291.0291001
291.029121
291.0291462
291.0291742
291.0292049
291.0292388
291.0292869
291.0293814
291.0295877
291.0297891
1207.868594
739.548805
429.3699901
312.5902646
292.8570045
291.2788105
291.1018803
291.0631192
291.04925
291.042636
291.0389264
291.0366474
291.0351802
291.034211
291.0335644
291.0331466
291.0328461
291.0326131
291.0324509
291.0323222
291.0322123
291.0321161
291.032032
291.0319596
291.0318983
291.0318469
291.0318042
291.0317688
291.0317393
291.0317144
291.0316927
291.0316731
291.0316545
291.0316361
291.0316169
291.0315967
291.0315751
291.031552
291.0315276
291.0315021
291.0314762
291.0314504
291.0314255
291.0314023
291.0313818
291.0313647
291.031352
291.0313441
291.0313416
291.0313445
291.031353
291.0313662
291.0313842
291.0314049
291.0314294
291.0314572
291.031498
291.0315696
291.0317012
291.0318159
1390.401382
936.1232756
579.2136812
373.0283591
302.05612
292.0125831
291.1952528
291.0837837
291.0558924
291.0455117
291.0406299
291.0379452
291.0363045
291.0352367
291.0345195
291.0340471
291.0337069
291.0334494
291.0332761
291.0331461
291.0330404
291.0329515
291.032877
291.0328158
291.032766
291.0327265
291.0326963
291.0326735
291.0326569
291.0326448
291.0326359
291.0326289
291.0326223
291.0326155
291.0326072
291.0325968
291.0325841
291.0325685
291.0325504
291.0325297
291.032507
291.0324829
291.032458
291.0324333
291.0324096
291.032388
291.0323695
291.0323548
291.0323446
291.032339
291.0323388
291.0323436
291.0323533
291.0323666
291.0323834
291.032403
291.0324327
291.0324781
291.0325505
291.0326065
1546.502518
1116.787797
753.4515594
489.3707764
340.5638636
296.1829082
291.5527379
291.1397698
291.0698395
291.0500952
291.0424793
291.0388867
291.0369072
291.0356879
291.0348896
291.0343635
291.0339853
291.0337049
291.0335175
291.0333773
291.0332706
291.0331857
291.0331172
291.0330648
291.0330249
291.0329962
291.0329774
291.0329667
291.0329626
291.0329635
291.0329677
291.0329739
291.0329803
291.0329861
291.0329897
291.0329905
291.032988
291.0329816
291.0329711
291.0329567
291.0329384
291.0329168
291.0328928
291.0328671
291.0328408
291.0328152
291.0327912
291.03277
291.0327527
291.0327371
291.0327281
291.0327241
291.0327256
291.0327308
291.0327407
291.0327538
291.0327743
291.0328016
291.0328416
291.0328693
1677.022021
1274.40523
909.8021648
630.6672582
430.4204187
316.3117183
293.1144573
291.3035072
291.1016789
291.0589694
291.0454995
291.0400969
291.0374963
291.0360227
291.0350936
291.0344954
291.0340697
291.0337537
291.0335462
291.0333992
291.0332869
291.0331984
291.0331307
291.0330812
291.0330471
291.0330265
291.0330167
291.0330163
291.0330232
291.033036
291.0330532
291.0330724
291.0330923
291.033111
291.0331277
291.0331413
291.0331497
291.0331537
291.0331517
291.0331447
291.0331307
291.0331127
291.0330914
291.0330645
291.0330359
291.0330064
291.0329774
291.0329498
291.0329249
291.0329033
291.0328865
291.0328742
291.0328675
291.0328651
291.0328684
291.0328753
291.0328889
291.0329059
291.0329312
291.0329475
1783.643382
1421.446222
1056.087382
758.6182238
533.1092831
368.185124
299.6971599
291.7692571
291.1668424
291.074123
291.0501964
291.0418917
291.0383164
291.036469
291.0353576
291.0346477
291.0341485
291.0337846
291.0335428
291.0333742
291.0332507
291.0331578
291.0330883
291.0330385
291.0330054
291.032987
291.0329817
291.0329873
291.0330024
291.0330248
291.0330526
291.0330837
291.0331162
291.0331479
291.0331773
291.0332025
291.0332225
291.0332362
291.033243
291.0332425
291.0332348
291.0332205
291.0332002
291.0331749
291.033146
291.0331146
291.0330821
291.0330498
291.0330191
291.0329912
291.0329674
291.0329479
291.0329341
291.032925
291.0329222
291.0329234
291.0329318
291.0329429
291.0329617
291.0329736
1862.979579
1558.440215
1202.933667
889.5317557
637.556175
436.9876353
316.7572531
293.1277766
291.3011107
291.0983886
291.0567699
291.0443104
291.039479
291.0371292
291.0357637
291.0349091
291.0343121
291.0338738
291.0335821
291.0333777
291.0332302
291.0331236
291.0330457
291.0329907
291.0329551
291.0329373
291.0329341
291.0329438
291.0329644
291.0329936
291.0330295
291.0330697
291.033112
291.0331542
291.033194
291.0332297
291.0332598
291.0332829
291.0332981
291.033305
291.0333037
291.0332942
291.0332774
291.0332543
291.0332259
291.0331938
291.0331592
291.0331236
291.0330887
291.0330556
291.0330261
291.0330006
291.0329807
291.0329656
291.0329574
291.0329539
291.0329581
291.0329652
291.0329805
291.0329904
1919.300558
1674.408402
1341.165171
1015.460685
735.6893158
505.5422662
346.9841375
296.5443658
291.605726
291.1394037
291.0657775
291.0473853
291.0409836
291.0380402
291.0363812
291.0353433
291.034614
291.0340802
291.0337084
291.0334552
291.0332736
291.0331374
291.033042
291.0329745
291.032929
291.0329049
291.0328987
291.0329074
291.0329291
291.0329613
291.0330016
291.0330476
291.0330968
291.0331469
291.0331953
291.03324
291.0332791
291.0333111
291.0333348
291.0333495
291.0333549
291.0333512
291.0333388
291.0333188
291.0332921
291.0332604
291.0332249
291.0331874
291.0331495
291.0331127
291.0330789
291.0330486
291.0330238
291.033004
291.0329914
291.0329839
291.0329847
291.0329889
291.0330019
291.0330106
1954.373558
1765.447762
1462.022542
1133.590138
827.2811678
568.5015432
380.5081164
303.7577599
292.1693054
291.2049057
291.0774179
291.0510744
291.042834
291.039216
291.0372042
291.0359366
291.035051
291.0344052
291.0339588
291.0336208
291.03339
291.0332164
291.0330923
291.0330025
291.0329398
291.0329027
291.0328866
291.0328887
291.0329063
291.0329367
291.0329773
291.0330256
291.0330786
291.0331339
291.0331887
291.0332407
291.0332876
291.0333276
291.0333592
291.0333814
291.0333937
291.033396
291.0333887
291.0333726
291.0333487
291.0333184
291.0332834
291.0332452
291.0332058
291.0331667
291.0331299
291.0330963
291.0330679
291.0330445
291.0330285
291.033018
291.0330162
291.0330181
291.0330293
291.033037
1973.292697
1836.015488
1565.525865
1240.357953
909.8972837
622.0150216
412.1742328
315.0865354
293.2125803
291.3172148
291.0949749
291.0560901
291.0452224
291.0407189
291.0382608
291.0367112
291.0356323
291.034849
291.0343039
291.0338838
291.0335913
291.0333699
291.0332067
291.0330846
291.0329972
291.0329396
291.032907
291.0328964
291.0329043
291.032928
291.0329644
291.0330108
291.0330642
291.0331215
291.0331801
291.033237
291.0332899
291.0333364
291.0333749
291.0334039
291.0334228
291.0334311
291.0334291
291.0334173
291.0333968
291.033369
291.0333355
291.033298
291.0332584
291.0332184
291.03318
291.0331445
291.0331138
291.0330881
291.0330698
291.0330573
291.0330536
291.0330539
291.0330635
291.0330704
1981.394816
1887.621546
1649.317889
1328.409262
970.857831
651.0725559
429.8016714
326.9116026
295.1058468
291.5469971
291.1251062
291.0633096
291.0484035
291.0426305
291.039571
291.0376768
291.0363757
291.0354381
291.0347631
291.0342511
291.0338788
291.033598
291.0333834
291.0332205
291.0331
291.0330149
291.0329602
291.0329315
291.0329252
291.0329379
291.0329663
291.0330074
291.0330579
291.0331146
291.0331743
291.0332339
291.0332906
291.033342
291.0333859
291.0334207
291.0334453
291.0334591
291.0334622
291.0334549
291.0334382
291.0334135
291.0333823
291.0333463
291.0333076
291.0332679
291.0332293
291.033193
291.0331614
291.0331347
291.0331152
291.0331016
291.0330969
291.0330962
291.0331048
291.0331108
1980.548775
1921.014793
1706.511415
1381.411347
987.724003
641.2653311
426.4662709
332.6057179
297.8753214
292.0147277
291.1856113
291.0753759
291.0528964
291.0451007
291.0412053
291.0388577
291.0372725
291.0361435
291.0353084
291.0346985
291.0342351
291.03388
291.0336084
291.0333994
291.0332408
291.033124
291.0330429
291.0329925
291.0329685
291.0329672
291.0329848
291.033018
291.033063
291.0331165
291.0331751
291.0332352
291.0332939
291.0333483
291.033396
291.0334351
291.0334644
291.0334829
291.0334904
291.0334874
291.0334745
291.0334531
291.0334246
291.0333909
291.033354
291.0333155
291.0332777
291.033242
291.0332106
291.0331839
291.0331644
291.0331507
291.0331456
291.0331445
291.0331526
291.033158
1971.987934
1925.749106
1712.526668
1361.796863
924.1076727
583.8846387
404.0586262
329.9978208
301.3103853
292.94278
291.3279062
291.1005955
291.0605296
291.0486717
291.0433676
291.0403605
291.0383626
291.0369662
291.0359568
291.0352083
291.0346403
291.0342043
291.0338673
291.0336061
291.0334055
291.0332544
291.0331451
291.0330715
291.0330287
291.0330122
291.033018
291.033042
291.0330805
291.0331294
291.0331853
291.0332443
291.0333032
291.033359
291.0334088
291.0334508
291.0334833
291.0335053
291.0335164
291.0335169
291.0335075
291.0334892
291.0334637
291.0334325
291.0333979
291.0333614
291.0333253
291.0332911
291.0332609
291.0332353
291.0332166
291.0332036
291.033199
291.0331982
291.0332062
291.0332112
1959.476735
1888.972162
1629.421477
1206.935193
767.6374095
499.2840709
375.8928528
324.7705279
303.5273819
294.7067616
291.7572181
291.1764417
291.0781866
291.0550123
291.046581
291.042324
291.0397116
291.0379411
291.0366774
291.0357496
291.0350535
291.0345243
291.0341184
291.0338056
291.0335652
291.0333828
291.0332484
291.0331546
291.0330954
291.0330658
291.0330611
291.0330769
291.0331089
291.0331532
291.0332057
291.0332627
291.0333207
291.0333763
291.0334269
291.0334701
291.0335044
291.0335285
291.0335421
291.0335452
291.0335385
291.0335229
291.0335001
291.0334716
291.0334395
291.0334054
291.0333717
291.0333397
291.0333116
291.033288
291.033271
291.0332596
291.0332561
291.033256
291.0332644
291.033269
1924.432074
1768.431436
1417.707415
924.5788652
597.5314483
431.2798827
355.5836068
321.5706405
305.5807042
297.3676624
293.0934141
291.4956524
291.139206
291.069958
291.0520113
291.0450536
291.0413624
291.0390382
291.0374374
291.0362877
291.0354415
291.0348091
291.0343319
291.0339692
291.0336932
291.0334854
291.0333335
291.0332257
291.0331559
291.0331178
291.0331063
291.0331165
291.033144
291.0331846
291.0332342
291.0332889
291.0333451
291.0333996
291.0334495
291.0334925
291.0335271
291.0335519
291.0335666
291.0335711
291.0335661
291.0335526
291.0335321
291.0335061
291.0334766
291.0334453
291.0334144
291.0333852
291.0333599
291.033339
291.0333247
291.0333157
291.0333143
291.033316
291.0333255
291.0333304
1766.304017
1477.558778
995.2559049
679.0455958
493.2279166
395.7487108
346.8734683
321.8042194
308.2773524
300.4612513
295.5379545
292.5883723
291.4017154
291.1220193
291.0651389
291.0498485
291.0437245
291.0404077
291.0382915
291.0368347
291.0357944
291.0350377
291.0344813
291.0340702
291.0337655
291.0335551
291.0333966
291.0332748
291.0332026
291.0331633
291.0331501
291.0331583
291.0331837
291.0332219
291.033269
291.0333211
291.0333748
291.0334268
291.0334745
291.0335158
291.0335489
291.0335728
291.033587
291.0335917
291.0335875
291.0335752
291.0335564
291.0335326
291.0335056
291.0334772
291.0334494
291.0334234
291.0334014
291.0333835
291.033372
291.0333654
291.0333658
291.033369
291.0333791
291.0333837
1152.433213
936.8869486
713.2899897
547.2056994
441.5235361
379.8475342
344.5249437
323.9575838
311.5513686
303.7054255
298.4720118
294.773199
292.3726428
291.3563749
291.1119892
291.0617512
291.0480574
291.0425025
291.0394701
291.037535
291.0362113
291.0352821
291.0346365
291.0341659
291.0338199
291.0335826
291.0334118
291.0333023
291.0332352
291.0331998
291.0331897
291.0331999
291.033226
291.0332639
291.0333097
291.0333598
291.0334109
291.0334601
291.0335048
291.0335432
291.0335736
291.0335953
291.0336079
291.0336115
291.0336068
291.0335949
291.033577
291.0335548
291.03353
291.0335042
291.0334794
291.0334567
291.033438
291.0334235
291.0334151
291.0334112
291.0334138
291.0334186
291.0334295
291.0334342
845.0116216
710.8013903
583.9803136
485.5599104
417.6049693
373.3979974
345.2124269
327.133775
315.2760888
307.2419682
301.5955558
297.4840184
294.3740142
292.2503258
291.3256975
291.1046148
291.0591666
291.0466167
291.0414817
291.0386618
291.0368705
291.0356682
291.0348586
291.0342863
291.0338913
291.0336335
291.0334649
291.033358
291.0332952
291.0332651
291.0332593
291.0332725
291.0333001
291.0333378
291.0333819
291.0334292
291.0334766
291.0335214
291.0335616
291.0335954
291.0336217
291.0336397
291.0336493
291.0336507
291.0336447
291.0336324
291.0336151
291.0335942
291.0335715
291.0335485
291.033527
291.0335078
291.0334929
291.0334821
291.0334771
291.0334764
291.0334814
291.0334881
291.0334999
291.0335047
693.4328082
603.0763478
520.7014684
454.5300094
405.6193919
371.0918553
347.2082853
330.7119302
319.1821686
310.9506896
304.9129087
300.3601776
296.8533588
294.0894143
292.1478369
291.2965028
291.0978915
291.0570356
291.0455399
291.0407382
291.0380819
291.0364086
291.035319
291.0345718
291.0340763
291.0337641
291.0335678
291.0334488
291.0333829
291.0333533
291.0333496
291.0333644
291.0333923
291.0334287
291.0334701
291.0335133
291.0335556
291.0335948
291.033629
291.033657
291.0336778
291.033691
291.0336966
291.0336951
291.0336872
291.0336741
291.033657
291.0336374
291.0336169
291.0335967
291.0335786
291.0335633
291.0335523
291.0335454
291.033544
291.0335465
291.033554
291.0335626
291.0335753
291.03358
606.9497273
542.6409678
484.2654643
435.8837252
398.2528231
370.0194502
349.2396587
334.0440909
322.8797561
314.5656474
308.2495685
303.3409908
299.4497756
296.3371373
293.8251661
292.0412798
291.2662264
291.0912228
291.0552205
291.044731
291.0402255
291.0377103
291.0361489
291.0351175
291.0344408
291.034016
291.033753
291.0335964
291.0335097
291.0334701
291.0334612
291.0334725
291.0334971
291.0335295
291.0335658
291.0336029
291.0336384
291.0336703
291.0336973
291.0337183
291.0337328
291.0337404
291.0337415
291.0337367
291.0337267
291.0337126
291.0336958
291.0336775
291.0336593
291.0336422
291.0336277
291.0336164
291.0336095
291.0336067
291.033609
291.0336147
291.0336245
291.033635
291.0336483
291.0336527
547.7699009
500.3312964
457.2244109
421.318975
391.7413033
368.4391589
350.4300393
336.6175825
326.0241228
317.8320274
311.4034306
306.266341
302.0890696
298.6540751
295.836493
293.5375488
291.9153454
291.2326619
291.0844652
291.0535264
291.0440973
291.0398989
291.0375317
291.0360309
291.0350565
291.0344403
291.0340551
291.0338221
291.0336896
291.0336217
291.033596
291.0335958
291.0336113
291.0336357
291.0336639
291.0336926
291.0337195
291.0337429
291.0337617
291.033775
291.0337826
291.0337844
291.033781
291.0337728
291.0337609
291.0337462
291.0337299
291.0337134
291.0336978
291.0336841
291.0336734
291.0336663
291.0336636
291.0336649