/*--------------------------------*- C++ -*----------------------------------*\
  =========                 |
  \\      /  F ield         | OpenFOAM: The Open Source CFD Toolbox
   \\    /   O peration     | Website:  https://openfoam.org
    \\  /    A nd           | Version:  10
     \\/     M anipulation  |
\*---------------------------------------------------------------------------*/
FoamFile
{
    format      ascii;
    class       volScalarField;
    location    "0.0250188088";
    object      alphat;
}
// * * * * * * * * * * * * * * * * * * * * * * * * * * * * * * * * * * * * * //

dimensions      [1 -1 -1 0 0 0 0];

internalField   nonuniform List<scalar> 
5170
(
0.0008125289974
0.0008111044241
0.0007989039473
0.0006739099126
0.0002546032966
0.0008016250428
0.0008006343191
0.0007796001449
0.0005051636728
0.0002942796468
0.0008000737179
0.0007906463999
0.0007169615392
0.0004074810545
0.0003340967971
0.0007882698391
0.0007698797331
0.0006506281111
0.0003438771989
0.0003577324478
0.0007787764528
0.0007432581172
0.0005896434453
0.0002991912555
0.0003820410527
0.0007552749202
0.0007056492709
0.0005079641048
0.000270378948
0.0003957686073
0.0007518544427
0.0007032473292
0.0004737736256
0.0002533352008
0.0004020447613
0.0007266249903
0.0006577508943
0.000435140351
0.0002433564465
0.0004056473536
0.0007043287416
0.0006188539219
0.0003930105213
0.0002379475788
0.0004073079108
0.000672997711
0.0005764376696
0.00036172734
0.0002387349376
0.0004075537903
0.0006562863039
0.0005538852852
0.0003368854602
0.0002446411631
0.0004068592832
0.000625982827
0.0005190995435
0.000318416274
0.0002523741704
0.0004056258209
0.0006053114716
0.0005008752301
0.0003026673262
0.0002614600017
0.0004041113897
0.00057518131
0.0004642250867
0.000289872208
0.0002721426138
0.0004024707556
0.0005542971706
0.0004541075605
0.0002793940388
0.0002870709788
0.0004007933733
0.0005324278396
0.0004150652691
0.0002749250525
0.000322973121
0.0003991762718
0.0005084115947
0.0003983659113
0.0002725119541
0.000333881864
0.0003977179087
0.0004907633982
0.0003848780244
0.0002768546292
0.0003765705089
0.0003964999325
0.0004684693882
0.0003712571154
0.0002816159294
0.0003826892522
0.0003953086384
0.0004550263112
0.0003516318869
0.0002803814592
0.0004286839428
0.0003833150813
3.017995069e-06
2.895020014e-05
4.721284615e-05
2.19994709e-05
2.511042989e-06
1.403639429e-06
2.325148266e-05
3.616562332e-05
1.346387613e-05
9.402834983e-07
7.537847234e-07
1.826686124e-05
2.715724129e-05
1.056936608e-05
4.087844693e-07
4.92020493e-07
1.466591624e-05
2.227845835e-05
1.096221993e-05
2.710321517e-07
3.907586265e-07
1.357345333e-05
1.946818751e-05
1.175818234e-05
2.721428982e-07
3.300886634e-07
1.192356368e-05
1.606426747e-05
1.342274006e-05
3.270040798e-07
3.116800872e-07
1.199270551e-05
1.471265358e-05
1.764987071e-05
4.706786768e-07
3.129110774e-07
1.173704977e-05
1.377555947e-05
2.195147216e-05
7.045845009e-07
3.264469886e-07
1.174774941e-05
1.370669758e-05
2.620008278e-05
9.665923859e-07
3.453593829e-07
1.184038545e-05
1.430730017e-05
2.969308769e-05
1.212964929e-06
3.646118908e-07
1.192394934e-05
1.53825431e-05
3.326538977e-05
1.451112714e-06
3.853802117e-07
1.219006893e-05
1.653329467e-05
3.630471668e-05
1.662803475e-06
4.032831683e-07
1.239086295e-05
1.78548173e-05
3.948073776e-05
1.856992002e-06
4.226734188e-07
1.277716414e-05
1.928824172e-05
4.127924996e-05
2.006256802e-06
4.396733115e-07
1.305791526e-05
2.082997692e-05
4.382251372e-05
2.181039057e-06
4.619682178e-07
1.378684069e-05
2.275909976e-05
4.766308859e-05
2.358010223e-06
4.831927491e-07
1.405891678e-05
2.430403909e-05
4.911156837e-05
2.425926079e-06
5.28032169e-07
1.47177078e-05
2.568474971e-05
4.980187884e-05
2.517943193e-06
6.284246621e-07
1.511524335e-05
2.71813675e-05
5.07638334e-05
2.601322039e-06
5.555107493e-06
1.786405105e-05
3.145642013e-05
4.881703011e-05
2.691596181e-06
0.0004316296957
0.0003365892512
0.0002965260951
0.0004489271476
0.0003546801441
0.0004194423486
0.000330391747
0.0003198035456
0.0004793624818
0.0004409654587
0.0003994720895
0.0003290400331
0.0003616827239
0.0005297333128
0.0005792514732
0.0003887937971
0.0003314537254
0.0003902259083
0.0005797559377
0.0007257920601
0.0003826569771
0.0003413254095
0.0004367745959
0.0006810390164
0.0008567490126
0.0003814153576
0.0003635827099
0.0005128052346
0.0007980875081
0.0009578979037
0.0003863605946
0.0003988233061
0.0006142123634
0.0009057349568
0.001053098658
0.0003936870623
0.0004475314445
0.0007197269445
0.001010023361
0.001149507474
0.0004070706593
0.0005151787031
0.0008418353068
0.001116240042
0.001246759132
0.0004328866577
0.0006004988415
0.0009651980692
0.001219102367
0.001342392096
0.0004787709563
0.000722763655
0.001112249375
0.001332514835
0.0014423009
0.0005763202118
0.0008829705114
0.001241076968
0.001441369301
0.001539672688
0.0008320710473
0.001102187531
0.001391832521
0.001561594584
0.001640842375
0.001010126461
0.001248364358
0.001499857699
0.001656260424
0.001730184791
0.001293163852
0.00145248468
0.001642773902
0.001767939553
0.001832074652
0.001509845315
0.001602958234
0.001741072025
0.001851258347
0.001912826801
0.001675607987
0.001742895273
0.001860791161
0.001963553932
0.002027596538
0.001940131853
0.001975453486
0.00204645379
0.002113614219
0.00215538938
0.002079766126
0.002088504936
0.002117008797
0.002167422722
0.002210888984
0.002155300761
0.002176684324
0.002231285289
0.002302746012
0.002372532434
0.002439801114
0.002479931298
0.00259118719
0.002724094225
0.002875332561
0.003593962104
0.0036123424
0.00365163993
0.003722755306
0.003790499703
0.004718430774
0.004705811124
0.00468783158
0.004671034142
0.00465887234
0.005363494354
0.005347228923
0.005317087927
0.005280209065
0.005251175869
0.005863889484
0.005862305747
0.005871471544
0.005900915116
0.005948357687
0.00634572658
0.006348574086
0.006347713653
0.006337568877
0.006314895617
0.006394716693
0.006398189601
0.006406507474
0.006419444859
0.00643729759
0.006453289023
0.006459703966
0.006474635742
0.006497745851
0.006528572329
0.006550327234
0.006558064752
0.006575961691
0.006603378322
0.006639476221
0.006697279869
0.006705563057
0.006724375209
0.006752958625
0.006790324637
0.006879572845
0.006887516771
0.006905523113
0.006932804523
0.006968385435
0.007062722751
0.007070005562
0.007086356595
0.007111030504
0.007143132375
0.007229254166
0.00723557749
0.007249822273
0.007271311412
0.007299276814
0.007382869136
0.007388359988
0.007400571135
0.00741894823
0.007442849878
0.007534248203
0.007538765992
0.007548906282
0.007564195223
0.007584094997
0.0076792792
0.007683024349
0.00769133558
0.007703843357
0.007720108369
0.007806319487
0.007809323492
0.007816039551
0.007826150212
0.007839303704
0.007905034045
0.007907555479
0.007913105877
0.007921427127
0.007932230199
0.007975166528
0.007977278657
0.007981958931
0.007988966029
0.007998079959
0.008021998492
0.008023888882
0.008027994839
0.008034118906
0.008042073476
0.008053536404
0.008055204
0.00805886399
0.00806433185
0.008071438148
0.008075576948
0.008077124548
0.00808047134
0.008085457831
0.008091937215
0.008092542002
0.008093941108
0.008097004229
0.008101579456
0.008107534355
0.008106242245
0.008107558449
0.008110402543
0.0081146441
0.008120166789
0.008118128419
0.008119331487
0.008121961093
0.008125891021
0.008131019985
0.008128589233
0.008129728008
0.008132186145
0.00813585311
0.008140638726
0.008138458987
0.008139498914
0.00814177988
0.008145192639
0.008149655844
0.008147758506
0.008148742728
0.008150876719
0.008154068337
0.008158238718
0.008156788841
0.008157695704
0.008159680863
0.008162655229
0.008166548786
0.008165274577
0.008166132964
0.00816799372
0.008170778123
0.008174425942
0.008173287789
0.008174079901
0.008175813033
0.008178414815
0.008181822002
0.008180482461
0.008181232511
0.008182862179
0.008185302937
0.008188505586
0.008187102229
0.008187796916
0.008189317717
0.008191602361
0.008194604603
0.008193181709
0.008193840956
0.00819527174
0.00819741676
0.008200235976
0.008199001681
0.008199607179
0.008200944364
0.008202952958
0.008205593783
0.008204476106
0.008205054583
0.008206309436
0.008208196857
0.008210676528
0.008209703982
0.008210239718
0.00821141341
0.00821317874
0.00821550368
0.008214392363
0.008214900383
0.008216004454
0.008217663486
0.008219847428
0.008218642457
0.008219112461
0.008220144899
0.008221699651
0.008223748597
0.008222279665
0.008222726976
0.00822369809
0.008225159856
0.008227084016
0.008225369877
0.008225783281
0.008226691713
0.008228061099
0.008229869962
0.008228024972
0.008228417727
0.008229272924
0.008230560097
0.008232259643
0.008229495635
0.008229859465
0.008230661454
0.0082318704
0.008233468542
0.008231943193
0.008232288908
0.008233041542
0.008234175586
0.008235672651
0.008230666301
0.008230987951
0.00823169469
0.008232761542
0.008234173035
0.00823624895
0.008236550741
0.008237207552
0.008238198494
0.008239506218
0.008227721787
0.008228004063
0.008228626992
0.008229567874
0.008230812284
0.008243224303
0.008243490656
0.008244071473
0.008244946435
0.008246101886
0.008223546729
0.008223778915
0.008224291708
0.008225066557
0.008226092052
0.008232170081
0.008232422707
0.008232982203
0.008233829001
0.008234954835
0.001310021972
0.0006986071019
0.0007211492574
0.0008100786128
0.0008963193074
0.0009869608536
0.001079293689
0.001174569111
0.001269997731
0.001364503756
0.001461254207
0.001554801709
0.001650920237
0.001740353244
0.001840115568
0.00192412634
0.002043133409
0.00216182591
0.002220477042
0.002409083222
0.0029484408
0.003822300357
0.004637556169
0.005250797554
0.005959808633
0.006310645477
0.006451914039
0.006551969179
0.006666594678
0.006818306582
0.006995031013
0.007167269948
0.007320420951
0.007460920691
0.007599136439
0.007732365411
0.007849257558
0.007940469643
0.008005093162
0.008048263353
0.008077025344
0.008097067663
0.008112259381
0.008124559925
0.008135104148
0.008144460563
0.008153217301
0.008161584336
0.008169675518
0.008177348353
0.008184575491
0.008191078154
0.00819701221
0.00820250342
0.008207724127
0.008212681138
0.008217386067
0.00822161742
0.008225411483
0.008228649823
0.008231331222
0.008233631206
0.008234760958
0.008236886156
0.008235318896
0.008240569379
0.0082318243
0.00824703736
0.008226925083
0.008235874451
0.00062765307
9.82707069e-05
5.461582529e-05
5.049228043e-05
1.248906489e-05
0.0006881425507
0.0003610734912
0.0001153945522
6.970045688e-05
2.792375909e-05
0.0007545724664
0.0005177034859
0.000292320401
0.0001612995943
7.014854187e-05
0.0008280805039
0.0006480652822
0.0004302861558
0.0003363934819
0.0002267671005
0.000892775034
0.0007626060376
0.0005645362441
0.0004565919498
0.0003791693421
0.0009733803789
0.0008806539286
0.0006935010417
0.0005585871605
0.0004996867594
0.001068142527
0.0009762162903
0.0008013586295
0.0006413191743
0.0005861256701
0.001165251761
0.001079874621
0.0009106478715
0.0007261758169
0.0006646810453
0.001260704659
0.001177501943
0.001025275715
0.000836650224
0.000753830428
0.001355538778
0.00127613463
0.00112194239
0.0009356262859
0.0008354702124
0.001450741278
0.001372277163
0.001223352996
0.001038376104
0.0009212909086
0.001541679159
0.001464130686
0.001321515113
0.001140850163
0.001001268476
0.001635561869
0.001562459919
0.001429395112
0.001258539109
0.001105624082
0.001726851811
0.001659655093
0.001534868435
0.001375173304
0.001218651432
0.001826215816
0.001761980393
0.001641787604
0.001486650405
0.001335087011
0.001916060576
0.001865045511
0.001762730061
0.001624301685
0.00147379302
0.002039907762
0.001996984322
0.001897923993
0.001756759016
0.001597760436
0.00215213484
0.002098345266
0.001985226099
0.001830599332
0.001667636513
0.002217620663
0.002173799069
0.002072000159
0.001919272676
0.001739108277
0.002440339538
0.002458210723
0.002377736659
0.002168994551
0.001844662021
0.003015168695
0.003051912064
0.003016924785
0.002906197596
0.002731289679
0.003840570427
0.003849416142
0.003804401511
0.003729457331
0.003682936425
0.004591463853
0.004518236359
0.004536822068
0.004565684626
0.004581519051
0.005248470515
0.00531031424
0.005321398765
0.005343055008
0.005375236722
0.005948997649
0.005931937547
0.005946762712
0.0059791576
0.006018887799
0.006302751412
0.006318338574
0.006355779917
0.006405365286
0.00645801087
0.006469654775
0.006515341267
0.006575557436
0.006643194703
0.006710656844
0.006582214893
0.006645673585
0.006721520046
0.006802978294
0.00688296972
0.006701748261
0.006773477288
0.006857627598
0.006947222093
0.007035287268
0.006854202356
0.006927532098
0.007013345213
0.007104567517
0.007194342223
0.007029216615
0.007099025438
0.007180520229
0.007266963513
0.007351910522
0.00719856633
0.007261983142
0.007335616265
0.007413476376
0.007489866907
0.007348120645
0.007404027879
0.007468662513
0.007536952898
0.007604004967
0.007484609364
0.007532603469
0.007588223468
0.007647139159
0.007705153538
0.007618613402
0.007658593026
0.00770529361
0.007754979452
0.007804030082
0.007748115097
0.007780710871
0.007818997371
0.007859804058
0.007900059749
0.007862116733
0.007888617491
0.007919650123
0.007952623657
0.007984987602
0.007951382452
0.00797338461
0.007998818579
0.008025616018
0.008051704692
0.008014733221
0.008033593154
0.0080550325
0.008077398435
0.008099005597
0.008057034759
0.008073755836
0.00809247713
0.008111858294
0.008130500403
0.008085111877
0.00810027495
0.008117093884
0.008134447926
0.008151144879
0.008104579428
0.008118545319
0.008133971594
0.008149896574
0.008165281499
0.008119259374
0.00813221426
0.008146522243
0.008161339999
0.008175746165
0.008131093197
0.008143178993
0.008156550639
0.008170456527
0.008184074469
0.00814120876
0.008152510095
0.008165050805
0.008178157803
0.008191090959
0.008150166848
0.008160762347
0.008172558273
0.008184948547
0.008197263669
0.008158556372
0.008168489761
0.008179593049
0.008191315397
0.008203051529
0.008166568843
0.008175891912
0.00818634996
0.008197444428
0.008208625392
0.008174336606
0.008183083133
0.008192930325
0.008203427549
0.00821407058
0.008181720597
0.008189935261
0.008199213109
0.008209144126
0.00821926874
0.008188659985
0.008196379623
0.008205123213
0.008214518275
0.008224145656
0.008194928679
0.008202195448
0.008210447566
0.008219343734
0.008228502569
0.008200633158
0.008207471166
0.008215257233
0.00822367884
0.008232387918
0.00820590159
0.008212340334
0.008219688909
0.008227662357
0.008235941735
0.008210910105
0.008216966758
0.008223897712
0.008231441661
0.0082393062
0.008215669946
0.008221369484
0.008227907062
0.008235042883
0.008242508748
0.00822018996
0.008225550541
0.00823171365
0.008238458847
0.008245539665
0.008224252222
0.008229297701
0.008235108498
0.00824148247
0.008248193087
0.008227888142
0.008232637564
0.008238116998
0.008244140521
0.008250500147
0.00823097639
0.008235446314
0.008240609628
0.008246296129
0.008252314284
0.008233527818
0.008237735725
0.008242604345
0.008247975923
0.008253675039
0.008235698247
0.008239656627
0.008244240489
0.008249305261
0.008254689703
0.008236708138
0.00824044249
0.008244771831
0.008249564344
0.008254670323
0.00823871004
0.008242213534
0.008246278027
0.008250782752
0.00825558999
0.008237037171
0.008240347279
0.008244194569
0.008248466703
0.008253036406
0.008242161505
0.00824523176
0.008248802941
0.008252772346
0.008257023977
0.008233338857
0.00823626532
0.008239675352
0.008243472375
0.008247548169
0.00824844175
0.008251147697
0.008254299007
0.00825780435
0.008261566489
0.008228181324
0.008230601109
0.008233418961
0.00823655844
0.00823993066
0.008237252915
0.00823994122
0.008243127355
0.00824675158
0.008250741345
2.366666102e-06
1.715964779e-06
3.652447629e-05
0.0002059826327
0.0004610524467
0.0005877202491
0.0006382614589
0.0006583330789
0.0006669021684
0.0006707013807
0.0006724253303
0.000672907286
0.0006729628177
0.0006730036711
0.0006735546326
0.0006743701192
0.000675083978
0.0006756336168
0.0006761083589
0.0006765572814
0.0006769455782
0.0006771049566
0.0006771161755
0.0006770258148
0.0006768267907
0.0006765267974
0.0006762040857
0.0006758550989
0.0006754412529
0.0006749783698
0.0006744980918
0.0006740351903
0.0006735901008
0.0006731341363
0.0006726406127
0.0006721455708
0.0006716848956
0.0006712451453
0.0006708170325
0.0006703979667
0.0006699977692
0.0006696200688
0.0006692756717
0.0006689645066
0.0006686733723
0.0006684033001
0.0006681619478
0.0006679436477
0.0006677420884
0.0006675601995
0.0006674024556
0.0006672362019
0.0006671175139
0.0006670530028
0.0006670134811
0.000666860047
0.0006621731074
0.0006226968356
0.0003786962632
3.425905397e-05
7.099539375e-06
1.230951041e-06
1.418037721e-05
8.84271268e-05
0.0002678116841
0.0004528066224
0.0005749873835
0.0006389182796
0.0006704866173
0.0006855512986
0.0006931002106
0.0006945278156
0.0006936077909
0.0006923591319
0.0006907613494
0.0006891170861
0.0006877155769
0.0006865162354
0.0006854133672
0.000684335615
0.0006829644808
0.0006817207715
0.0006805460876
0.0006794391911
0.0006783210215
0.000677351072
0.0006764489395
0.0006756245577
0.0006748626888
0.0006741388516
0.0006734531359
0.000672819096
0.000672229469
0.0006716746391
0.0006711533314
0.0006706744575
0.0006702405176
0.0006698525944
0.000669496703
0.0006691663901
0.000668859969
0.000668582794
0.0006683189724
0.0006680475846
0.0006678080493
0.0006676379594
0.0006675101506
0.0006673982265
0.0006673056314
0.000667223951
0.0006671623807
0.0006671408585
0.000667106142
0.0006670506668
0.0006668961472
0.0006650003395
0.0006500424264
0.0005680959989
0.0002840364451
3.280430952e-05
2.410152877e-05
3.567424894e-06
7.411053887e-06
5.332628824e-05
0.0001620771138
0.00034388333
0.0005226844094
0.000638450708
0.0007036259335
0.0007356634367
0.0007456548333
0.0007440607448
0.0007365044637
0.0007265710826
0.0007168729051
0.0007084540103
0.0007015939756
0.0006967897307
0.0006930774723
0.0006899877356
0.0006875940561
0.0006849649692
0.0006826758475
0.0006807145123
0.0006791398133
0.0006777434827
0.0006765228656
0.0006754497689
0.0006745061895
0.0006736687262
0.0006729216221
0.0006722521416
0.0006716514444
0.0006711130849
0.0006706295752
0.0006701979421
0.0006698184191
0.0006694916932
0.0006692042742
0.0006689644828
0.0006687630774
0.0006685616664
0.0006683634032
0.0006681837202
0.0006679645193
0.0006677081037
0.0006675003784
0.0006673749693
0.0006672848275
0.0006672088317
0.0006671341036
0.0006670661648
0.0006669990285
0.0006668763976
0.000666214462
0.0006612022578
0.0006347998381
0.0005206230265
0.0002375836702
3.144298075e-05
0.0001223903329
3.967891015e-05
7.155514694e-06
2.607596244e-05
0.0001149810787
0.0002872317593
0.0005170439301
0.0006847033682
0.0007883330853
0.0008414903802
0.0008580674072
0.0008528629985
0.0008344524678
0.0008095728095
0.0007836679256
0.0007604779387
0.0007419304699
0.0007276195568
0.0007168589896
0.0007085052482
0.0007018095731
0.0006967696001
0.0006926589949
0.0006892514925
0.0006863906344
0.0006839528676
0.0006818492178
0.0006800241893
0.000678439
0.0006770548804
0.0006758442551
0.0006747824132
0.0006738480996
0.0006730236867
0.0006722946549
0.0006716481757
0.0006710780697
0.0006705755646
0.0006701342312
0.0006697845616
0.0006694869222
0.0006691809535
0.0006689018215
0.0006686988012
0.0006685265309
0.0006682962228
0.0006680897017
0.0006679386183
0.000667758459
0.0006675902577
0.0006674499977
0.0006673252075
0.0006672038137
0.0006669381401
0.0006654167556
0.000656159029
0.0006171353016
0.0004792521
0.0002076424729
3.01603075e-05
0.0002161512666
0.0001126251678
3.248270381e-05
1.951707324e-05
7.417157266e-05
0.0002486716455
0.0005306223525
0.0007669626369
0.0009266308106
0.001020880512
0.001064012879
0.00106704389
0.001040366171
0.0009935466909
0.0009356072989
0.00087906348
0.0008315377778
0.0007951374655
0.000768980845
0.0007503989094
0.0007367693906
0.0007263674576
0.0007179969926
0.0007110743963
0.0007052716385
0.0007003701017
0.0006961866075
0.0006925879554
0.0006894671694
0.0006867473813
0.0006843726336
0.000682297912
0.0006804778562
0.0006788773514
0.0006774629553
0.0006762030964
0.0006750785759
0.0006740664471
0.0006731499242
0.0006722871789
0.0006715249743
0.0006709520244
0.0006704998734
0.0006700844552
0.0006697138238
0.0006692996227
0.0006688790003
0.0006685348647
0.0006682762813
0.0006680349191
0.0006677880863
0.0006675625633
0.000667317784
0.0006666335634
0.0006633612294
0.0006493247647
0.0005969280091
0.0004419930366
0.0001860073137
2.895290433e-05
0.0004184249928
0.0002289158208
0.0001118121992
3.741538129e-05
4.763996014e-05
0.000165264574
0.0004364717725
0.0007252413776
0.0009332659438
0.001058488469
0.001125696176
0.001150790681
0.001143729478
0.001112072727
0.001063401724
0.001003983023
0.0009415539761
0.0008841374332
0.0008372500067
0.0008020595695
0.000776625321
0.00075806302
0.0007439868411
0.0007328439388
0.0007237192663
0.0007161028222
0.0007096762805
0.0007041994634
0.0006994981474
0.0006954432177
0.0006919298713
0.0006888706238
0.0006861976505
0.0006838556016
0.000681794431
0.0006799730525
0.0006783624864
0.0006769365641
0.0006756706892
0.0006745403234
0.0006735245293
0.000672604329
0.0006717527728
0.0006710506326
0.0006706052979
0.000670308344
0.0006698439395
0.0006692280095
0.0006687102669
0.000668365841
0.0006681197401
0.0006678553082
0.0006674157409
0.0006660773274
0.0006603470716
0.000640471021
0.0005744733107
0.0004080098326
0.0001683903582
2.774931394e-05
0.0005379498839
0.0004147951035
0.0002262877163
0.0001119912274
4.639040563e-05
8.745972836e-05
0.0002738477095
0.00059677182
0.0008590108381
0.001033011028
0.001137630715
0.001191754961
0.001209020505
0.001198606548
0.001166571842
0.00111746269
0.001056210766
0.0009898135903
0.0009265221513
0.0008726420383
0.0008306206817
0.0007993740056
0.000776282052
0.0007587873658
0.0007450400846
0.0007339000079
0.0007246737414
0.0007169189934
0.0007103436012
0.000704724134
0.0006998912769
0.0006957200687
0.0006921009209
0.0006889493742
0.0006861954472
0.0006837825802
0.0006816666462
0.0006798088321
0.000678174197
0.0006767304862
0.0006754530407
0.0006743075085
0.0006732169961
0.0006722414814
0.000671477864
0.0006709678833
0.0006705918503
0.0006701475939
0.0006695772443
0.0006689777364
0.0006684805852
0.0006680741911
0.0006673870753
0.000664999807
0.0006565798542
0.0006294205191
0.0005490474691
0.0003765746484
0.0001535112736
2.66598196e-05
0.0006251980066
0.0005536948062
0.0003924037173
0.0002151111635
0.00011299739
6.167903797e-05
0.0001655178089
0.0004394578323
0.0007652461841
0.001001819683
0.001150257118
0.00123400534
0.001271505869
0.001275929213
0.001255974083
0.00121710627
0.001162894992
0.001097578694
0.001027686547
0.0009605243812
0.0009021424533
0.000855431531
0.000819883022
0.00079314442
0.0007727114947
0.0007566369151
0.0007436325117
0.0007328925878
0.0007238956338
0.0007162814071
0.0007097893445
0.0007042230422
0.0006994231168
0.0006952700145
0.0006916625576
0.0006885213496
0.000685781565
0.00068338872
0.0006812930216
0.0006794536215
0.0006778370236
0.0006764246494
0.0006752417776
0.0006741023767
0.0006729068911
0.0006718723095
0.0006711916309
0.0006707670869
0.000670411845
0.0006699674096
0.0006694006467
0.0006686623161
0.0006673172013
0.0006632522845
0.0006515846515
0.0006152274155
0.0005218314232
0.0003467895022
0.0001406142051
2.571813283e-05
0.00071156472
0.0006672842493
0.0005991535517
0.0004591184198
0.0002419265461
0.0001043553048
9.65730095e-05
0.0002970471714
0.0006432499583
0.0009519667851
0.00115591088
0.001275955907
0.001335978432
0.001354097778
0.001342867676
0.001310574509
0.001261850106
0.00120001267
0.001129524454
0.001055914506
0.0009857746601
0.0009246591445
0.0008751929896
0.0008369256907
0.0008076936352
0.0007850844147
0.000767170763
0.0007526227858
0.0007405850883
0.0007304941365
0.0007219515571
0.0007146713462
0.0007084286842
0.0007030533738
0.0006984068897
0.0006943752641
0.0006908714622
0.0006878174252
0.0006851541121
0.0006828230713
0.0006807826451
0.0006789933824
0.0006774411103
0.0006761322122
0.0006749238335
0.0006736957228
0.0006725482284
0.0006716410629
0.0006710237788
0.0006705800535
0.0006701180734
0.0006691872911
0.0006669193854
0.000661246787
0.0006451933847
0.0005995676266
0.0004966401168
0.0003213222673
0.0001288775731
2.428831699e-05
0.0007888098488
0.0007570331092
0.0007166387012
0.0006531703109
0.0005266631781
0.0002612227102
8.553447421e-05
0.0001787868904
0.00049423496
0.0008687804695
0.001140522049
0.001307729973
0.001397092821
0.001432278295
0.001430581932
0.001403639027
0.001358333299
0.001298789418
0.001229005292
0.001152851749
0.001075600981
0.001003191368
0.0009405111271
0.0008896756387
0.0008499966527
0.0008193228835
0.0007953187928
0.0007761168477
0.0007604185536
0.0007473745433
0.0007364035665
0.0007271006744
0.0007191591316
0.0007123446523
0.0007064702674
0.0007013908211
0.0006969826551
0.0006931500872
0.0006898103243
0.0006868986392
0.000684353776
0.0006821266531
0.0006801780242
0.0006784745192
0.0006769875435
0.0006757130748
0.0006745431243
0.0006733855543
0.0006723265152
0.0006714438901
0.0006706508568
0.0006693582957
0.0006663743144
0.0006587231734
0.0006372230259
0.0005836273564
0.0004735117183
0.0003000417425
0.0001188870314
2.320007039e-05
0.0008741497877
0.0008460201246
0.0008238762508
0.0007849579322
0.0006994570202
0.0004704091949
0.0001562712123
0.0001033555754
0.0003438871986
0.0007507232343
0.001096314619
0.001321263171
0.001448609904
0.001507101388
0.001518735067
0.001498824156
0.001456936942
0.001398738845
0.001329038478
0.00125117473
0.001169244868
0.001088453808
0.001014328238
0.0009509719041
0.0008997488896
0.0008595530526
0.0008281881543
0.0008033822288
0.0007833516231
0.0007668661482
0.0007530893958
0.0007414587703
0.0007315608358
0.0007230895574
0.0007158051923
0.0007095201378
0.0007040787247
0.0006993613061
0.0006952564639
0.0006916842245
0.0006885643399
0.000685837253
0.0006834489885
0.0006813562851
0.0006795257883
0.0006779243305
0.0006765303001
0.0006753358748
0.000674224308
0.0006730868638
0.0006718032936
0.0006698272916
0.0006656683237
0.0006556094213
0.0006284167381
0.0005674419484
0.0004518913622
0.0002815025914
0.0001104736483
2.246193788e-05
0.0009560581061
0.0009315576245
0.0009179178914
0.0008958662855
0.0008323195664
0.0006725897231
0.0002920697574
9.198597879e-05
0.0002163797629
0.0005971148035
0.001015118912
0.001308676681
0.0014844103
0.00157441645
0.001605166371
0.001595824991
0.001559026296
0.001502576417
0.00143271852
0.001353114195
0.001267335928
0.001179906902
0.001096125565
0.001020973989
0.000957566671
0.000906524727
0.0008663737504
0.00083477872
0.0008095678521
0.0007890420529
0.0007720363
0.0007577514838
0.0007456357501
0.0007352917783
0.0007264170832
0.0007187698436
0.0007121657388
0.0007064431435
0.0007014804335
0.0006971585095
0.0006933930147
0.0006900998101
0.0006872199481
0.0006846988861
0.0006824977867
0.0006805699404
0.0006788853747
0.0006774026277
0.0006760766683
0.0006748048469
0.0006732463457
0.0006705446812
0.0006647477016
0.0006511395259
0.0006185914106
0.0005508435871
0.0004310798811
0.0002643457728
0.0001027326281
2.166326577e-05
0.001046793517
0.001020401843
0.001008370334
0.0009924120384
0.0009457067129
0.0008107345577
0.0004389434592
0.0001289376164
0.0001359055394
0.0004339606512
0.0008854734157
0.001249353195
0.001485283584
0.001618337231
0.001677323066
0.001685181326
0.001658038098
0.001606100097
0.001537603274
0.001457250109
0.001368707437
0.001276131825
0.00118441699
0.001098702956
0.00102336679
0.000960690242
0.0009104385141
0.0008707719965
0.0008393388961
0.0008140322406
0.000793277849
0.0007759757754
0.0007613739473
0.0007489466884
0.0007383039558
0.0007291517438
0.0007212554964
0.000714421223
0.00070849656
0.0007033401507
0.0006988498204
0.0006949247925
0.0006914984947
0.0006885044456
0.0006858900839
0.0006836027969
0.0006815986467
0.0006798200561
0.000678206812
0.000676593364
0.0006745018543
0.0006708982035
0.000663427031
0.0006458459268
0.0006080259922
0.0005342168871
0.0004114683954
0.0002489126465
9.587478986e-05
2.083668315e-05
0.001143394969
0.00111526105
0.001103825608
0.001088938535
0.001050862606
0.0009329805143
0.0006163541784
0.0002213554397
0.0001099922922
0.0002828804249
0.0007050954072
0.001140075869
0.001446002829
0.001631382603
0.001726169803
0.001757039332
0.001743898613
0.001699815148
0.00163525947
0.001556176768
0.001466797939
0.001371261787
0.001274064641
0.001180219427
0.001094656702
0.00102087446
0.0009601003398
0.0009114343064
0.0008727913785
0.0008418857012
0.0008167795341
0.0007960414949
0.0007786575539
0.000763933942
0.000751362604
0.0007405729763
0.0007312735967
0.0007232304887
0.000716255927
0.0007101913016
0.0007049100924
0.0007003040597
0.0006962836664
0.0006927723767
0.0006897002403
0.0006870070874
0.0006846407078
0.0006825294728
0.0006805844118
0.0006785631516
0.0006757532687
0.0006710313919
0.0006614125326
0.000639914216
0.0005966902822
0.0005174392706
0.0003926490888
0.000234470039
8.925678512e-05
2.000254019e-05
0.001249818605
0.001222932724
0.001208223267
0.001184726316
0.001145501079
0.001040594553
0.0007843394856
0.0003710524781
0.0001425885735
0.0001805511337
0.0004957853057
0.0009657319635
0.001349156156
0.001599390055
0.001738783163
0.00179847981
0.001803601629
0.001771042121
0.001713536727
0.001638504877
0.001551266268
0.001456016349
0.001356928076
0.001258647223
0.001166141318
0.001083579448
0.00101337892
0.0009558210939
0.000909553721
0.0008724736199
0.0008424800335
0.0008178767494
0.000797402189
0.0007801522214
0.000765484699
0.0007529265324
0.000742118037
0.0007327769618
0.0007246822224
0.0007176476753
0.0007115261963
0.0007061880581
0.0007015312978
0.0006974588456
0.0006938923968
0.0006907606935
0.0006880032938
0.0006855210671
0.0006831833228
0.0006806509672
0.0006769078433
0.0006707382241
0.0006584371607
0.0006330400279
0.0005845597765
0.0005004246753
0.0003743188466
0.0002206509676
8.289536936e-05
1.917715479e-05
0.001370381782
0.001334398904
0.001305020724
0.001263055642
0.001220671518
0.001138700175
0.0009590194021
0.0006254456983
0.0002625699539
0.0001483176735
0.0003119851542
0.0007164270777
0.001165687023
0.001496572493
0.001695786487
0.001794139262
0.001823777959
0.001806962504
0.001759906711
0.001692619161
0.001611328587
0.001520359512
0.001423760919
0.001325714643
0.001230794102
0.001143305042
0.001066424066
0.001001522823