/*--------------------------------*- C++ -*----------------------------------*\
  =========                 |
  \\      /  F ield         | OpenFOAM: The Open Source CFD Toolbox
   \\    /   O peration     | Website:  https://openfoam.org
    \\  /    A nd           | Version:  10
     \\/     M anipulation  |
\*---------------------------------------------------------------------------*/
FoamFile
{
    format      ascii;
    class       volScalarField;
    location    "0.0250188088";
    object      C2H2;
}
// * * * * * * * * * * * * * * * * * * * * * * * * * * * * * * * * * * * * * //

dimensions      [0 0 0 0 0 0 0];

internalField   nonuniform List<scalar> 
5170
(
0
0
0
0
0
0
0
0
0
0
0
0
0
0
0
0
0
0
0
0
0
0
0
0
0
0
0
0
0
0
0
0
0
0
0
0
0
0
0
0
0
0
0
0
0
0
0
0
0
0
0
0
0
0
0
0
0
0
0
0
0
0
0
0
0
0
0
0
0
0
0
0
0
0
0
0
0
0
0
0
0
0
0
0
0
0
0
0
0
0
0
0
0
1.759154213e-13
8.854656886e-13
3.169388215e-13
2.021624925e-12
1.64320546e-11
1.150906972e-10
5.438211036e-10
3.040427093e-18
2.946414291e-18
3.416124207e-18
2.78267316e-18
1.426358145e-16
3.793851192e-18
5.023272617e-18
1.793933807e-17
1.316074015e-18
2.026891312e-17
1.01865655e-17
0
6.465906511e-17
8.716951401e-19
2.594202344e-18
4.691417237e-18
2.460567477e-17
6.047889099e-17
1.744720372e-18
0
0
7.02092939e-17
2.765775464e-17
4.255850674e-19
6.080693352e-17
0
3.577109827e-16
1.610311178e-16
0
0
0
0
2.337192293e-15
2.197367346e-14
9.281680724e-12
9.209015119e-12
9.255980171e-12
0
2.342699758e-11
0
0
8.515941018e-12
2.167841353e-12
0
0
0
3.495125217e-10
2.241024733e-10
0
0
3.185139748e-11
4.256418642e-10
2.902964009e-10
0
6.734531506e-11
1.858162557e-11
5.014846799e-11
6.104701158e-12
5.354206371e-13
1.577815559e-11
2.442211677e-13
4.115492448e-12
7.309405923e-13
1.128601279e-11
1.465652575e-10
6.05197587e-11
8.051724558e-13
1.007131853e-12
7.69224299e-11
2.785571197e-10
1.891423386e-10
4.884222e-11
4.32607053e-11
1.485551989e-10
2.01780742e-10
2.374205884e-10
1.389976224e-10
1.295959106e-10
2.380761672e-10
2.074074782e-10
1.954742479e-10
2.348382389e-10
2.207061518e-10
2.005365774e-10
3.087702488e-10
1.816541802e-10
1.858096339e-10
1.770579206e-10
1.772679427e-10
2.110430959e-10
6.213594084e-10
3.309040436e-10
2.060785554e-10
2.628806595e-10
9.17846953e-11
3.520824129e-08
1.832137232e-08
3.27464872e-09
6.62785114e-10
3.637844317e-11
1.648708812e-11
1.225810127e-10
1.798418573e-09
2.546267973e-08
3.172443535e-07
7.255371369e-10
5.646290283e-09
8.217077933e-08
1.091075944e-06
1.188460145e-05
4.5671979e-09
3.220398308e-08
3.854334849e-07
3.828539148e-06
2.669376985e-05
1.771299974e-08
1.121962745e-07
1.124901985e-06
8.749189457e-06
4.326706199e-05
5.600394563e-08
3.274118354e-07
2.82732019e-06
1.774098401e-05
7.029997577e-05
1.578282338e-07
8.620434311e-07
6.390879123e-06
3.276944809e-05
0.0001096847476
4.077878411e-07
2.060737002e-06
1.28739224e-05
5.402868212e-05
0.0001540470886
9.712059789e-07
4.450136684e-06
2.305274127e-05
7.948340291e-05
0.0001940956448
2.160470448e-06
8.802105478e-06
3.733406103e-05
0.000107201041
0.0002299071658
4.525524087e-06
1.607576975e-05
5.598645959e-05
0.0001377352366
0.0002683517956
9.053036568e-06
2.761658271e-05
7.971454957e-05
0.0001729968526
0.0003142706531
1.76996643e-05
4.479811031e-05
0.0001089219272
0.0002139267675
0.0003664460569
3.361460629e-05
6.893772731e-05
0.000144119388
0.0002598540544
0.0004210849708
5.795424393e-05
0.0001004352914
0.0001851121264
0.0003095799955
0.0004763666713
9.493787422e-05
0.0001416795679
0.0002331571625
0.0003639923082
0.0005346265279
0.0001445112518
0.0001931528352
0.0002890648759
0.0004245477444
0.0005982995471
0.0002083457125
0.0002573996301
0.0003551970575
0.0004925262479
0.000666780983
0.0002875358435
0.0003343198677
0.0004291417059
0.0005626043859
0.0007309455801
0.0003700264597
0.0004119032546
0.0004976849988
0.0006176332118
0.0007653955404
0.0004447382546
0.0004790392613
0.0005480725996
0.0006405706641
0.0007468773509
0.0004996903969
0.0005224917186
0.0005665158165
0.0006209308233
0.0006760328967
0.0005142431435
0.0005235607046
0.0005407496568
0.0005598201995
0.0005752083664
0.0004712717579
0.0004727219829
0.0004745016271
0.0004743727611
0.0004701733182
0.000394022454
0.0003925845838
0.000388766521
0.0003819530933
0.0003715862527
0.0003076883696
0.0003057081651
0.000301009234
0.0002935900481
0.0002835511352
0.0002271059885
0.0002254481508
0.0002216500031
0.0002158087724
0.0002080863378
0.000163941347
0.000162757055
0.0001600143631
0.0001558138441
0.0001503143591
0.0001152860973
0.0001144834217
0.0001126227979
0.0001097796848
0.0001060738242
7.940770312e-05
7.888636924e-05
7.767609789e-05
7.582698312e-05
7.341965302e-05
5.377635002e-05
5.344819419e-05
5.268451136e-05
5.151630382e-05
4.999468079e-05
3.583573846e-05
3.563443985e-05
3.516438728e-05
3.444366965e-05
3.350343011e-05
2.344331584e-05
2.332289473e-05
2.304021372e-05
2.260532666e-05
2.203670973e-05
1.498900434e-05
1.49189071e-05
1.475316395e-05
1.44970507e-05
1.416130989e-05
9.322086246e-06
9.282576063e-06
9.188230585e-06
9.04165534e-06
8.848974339e-06
5.618625086e-06
5.597157369e-06
5.545261052e-06
5.464116762e-06
5.357133343e-06
3.274012765e-06
3.262816747e-06
3.235323187e-06
3.192008636e-06
3.134722358e-06
1.841239867e-06
1.835651538e-06
1.821660096e-06
1.799419084e-06
1.769904606e-06
9.975017016e-07
9.948464952e-07
9.880292673e-07
9.770743488e-07
9.62482732e-07
5.193658115e-07
5.181732302e-07
5.150089934e-07
5.098552982e-07
5.029616461e-07
2.591859164e-07
2.586860351e-07
2.572972825e-07
2.549956309e-07
2.519013565e-07
1.236330267e-07
1.234408365e-07
1.228700749e-07
1.219018476e-07
1.205919557e-07
5.623077709e-08
5.616518768e-08
5.594841026e-08
5.55684094e-08
5.505005096e-08
2.433698508e-08
2.43184324e-08
2.424383387e-08
2.410643572e-08
2.391683588e-08
1.000846584e-08
1.000506561e-08
9.982627723e-09
9.937724084e-09
9.87466617e-09
3.90682417e-09
3.907218094e-09
3.90181418e-09
3.889013167e-09
3.870486031e-09
1.44640371e-09
1.447213578e-09
1.446504074e-09
1.443585151e-09
1.43907066e-09
5.073244548e-10
5.07851805e-10
5.080769987e-10
5.077228968e-10
5.070050809e-10
1.685674063e-10
1.68828545e-10
1.690709438e-10
1.691907354e-10
1.692603904e-10
5.295562085e-11
5.306563244e-11
5.319612468e-11
5.331037353e-11
5.343106973e-11
1.563758344e-11
1.567811257e-11
1.57320043e-11
1.57875005e-11
1.585173409e-11
4.136411636e-12
4.148652223e-12
4.168562179e-12
4.193263572e-12
4.224318253e-12
1.049385322e-12
1.053945425e-12
1.061191913e-12
1.07011016e-12
1.081155706e-12
2.389185221e-13
2.402791396e-13
2.425342348e-13
2.454017055e-13
2.490167523e-13
4.651340369e-14
4.692795294e-14
4.773969913e-14
4.868432522e-14
4.98839311e-14
8.030291337e-15
8.122909227e-15
8.2900443e-15
8.51265727e-15
8.793489829e-15
1.006100165e-15
1.019406996e-15
1.036465339e-15
1.018794175e-15
1.051445576e-15
0
0
0
0
0
0
0
0
0
0
0
0
0
0
0
0
0
0
0
0
5.745352628e-18
5.825250617e-18
5.974032084e-18
6.116863814e-18
6.230352175e-18
5.026434324e-17
5.000941485e-17
4.941400546e-17
4.839267686e-17
4.680423192e-17
1.73976904e-16
1.711297016e-16
1.648449772e-16
1.550605198e-16
1.415150833e-16
1.806415146e-16
1.761520572e-16
1.670173873e-16
1.540955314e-16
1.391283625e-16
2.45119725e-16
2.401543005e-16
2.301771387e-16
2.163512947e-16
2.008096753e-16
2.755216933e-16
2.733948775e-16
2.698548751e-16
2.674418684e-16
2.778879184e-16
4.854316815e-16
4.851685081e-16
4.846500295e-16
4.838124548e-16
4.825666526e-16
5.728112158e-16
5.719330922e-16
5.700610001e-16
5.672531554e-16
5.634778498e-16
5.033832562e-16
5.031183189e-16
5.02486749e-16
5.014186765e-16
4.9980308e-16
4.150430221e-16
4.150888066e-16
4.148580207e-16
4.122745487e-16
3.938941308e-16
1.096608315e-06
5.108929174e-05
7.666724227e-05
9.820756832e-05
0.000150423432
0.0002185869052
0.0002777974381
0.0003157295165
0.0003474589593
0.0003887612691
0.0004430462049
0.0005024587902
0.0005599328412
0.0006152117588
0.0006737280928
0.0007383415263
0.000805918517
0.0008644994986
0.0008794462778
0.0008214156354
0.0007086972446
0.0005811225857
0.0004645345223
0.0003629710746
0.0002759069855
0.000202324947
0.0001462999242
0.0001034025044
7.169965816e-05
4.891506507e-05
3.284085543e-05
2.163942974e-05
1.392946679e-05
8.718015111e-06
5.285900935e-06
3.097562618e-06
1.751379429e-06
9.537025089e-07
4.990374816e-07
2.502689844e-07
1.199729163e-07
5.484397689e-08
2.386183954e-08
9.866804735e-09
3.873456371e-09
1.442502907e-09
5.090689191e-10
1.702533559e-10
5.384166948e-11
1.600315556e-11
4.275814399e-12
1.097958394e-12
2.540153993e-13
5.134312003e-14
9.116809428e-15
1.087635143e-15
0
0
0
0
6.267942367e-18
4.518982762e-17
1.299438391e-16
1.279099655e-16
1.896252011e-16
2.76584065e-16
4.809078499e-16
5.601031348e-16
4.983408783e-16
3.952357102e-16
2.387741969e-06
2.206922647e-06
1.305637532e-07
1.175648734e-08
6.79278675e-10
0.0001575683011
0.0008187696602
4.702157083e-05
1.4033239e-06
5.740873138e-08
0.0001809953337
0.0004464246181
4.608809683e-05
2.582795634e-06
1.116503076e-07
0.0002052005314
0.0004560189861
0.0008058802287
6.127229962e-05
3.018998594e-06
0.0003167865863
0.0008797797767
0.002347978116
0.0002347946872
1.655758335e-05
0.0004367973412
0.001084443591
0.002272998797
0.0002914851202
2.681706525e-05
0.000509288644
0.001053627867
0.001736268998
0.0002636223831
3.04110164e-05
0.0005282194666
0.0009153336793
0.001220462977
0.0004977135572
6.484996955e-05
0.0005473007449
0.0009065252509
0.001338899838
0.00183294129
0.0002632585915
0.0005933842227
0.0009978337835
0.001595723946
0.002587712638
0.0004215459983
0.0006616205798
0.001112495704
0.001777785924
0.002790307895
0.0005073368519
0.0007302882534
0.001184004935
0.001787325767
0.002552997061
0.0005533225133
0.0007879004736
0.001214303583
0.001725942374
0.002300335603
0.001319002857
0.0008399084649
0.001245462965
0.001726764593
0.002306199428
0.002115045711
0.0008970027774
0.00129865128
0.001789625831
0.002420957785
0.002711383634
0.0009621797284
0.001365568127
0.001860939436
0.002488917476
0.002947812349
0.001027545018
0.001423224022
0.001900236766
0.002482151915
0.002948456464
0.001077046023
0.00145417572
0.00191089096
0.002483370488
0.002957414949
0.001060966016
0.001367615064
0.001724639655
0.002170409397
0.002276942756
0.0009374023709
0.001085394785
0.001177969993
0.001155061972
0.000519536195
0.0007594956236
0.0007899599678
0.000757258309
0.0006486723658
0.0004440830094
0.0005923139178
0.0005744099486
0.0005187798186
0.0004314793249
0.0003262764861
0.0004589565997
0.0004291126155
0.0003798061311
0.0003181986506
0.0002530768057
0.0003529325214
0.0003251214738
0.0002873966307
0.0002442157531
0.0002003351409
0.0002669383713
0.0002452959173
0.0002177846502
0.0001873336191
0.0001566268999
0.0001956642233
0.0001802114151
0.0001610116927
0.0001399786925
0.0001187688665
0.0001418094262
0.0001312427166
0.0001180789718
0.0001036245969
8.897501648e-05
0.0001005193242
9.354468585e-05
8.47527843e-05
7.502575123e-05
6.509186813e-05
6.990971712e-05
6.542876719e-05
5.969054632e-05
5.327706978e-05
4.666641743e-05
4.783336081e-05
4.501813871e-05
4.134698504e-05
3.719461005e-05
3.286932221e-05
3.220592523e-05
3.047424253e-05
2.816798691e-05
2.552377449e-05
2.273741914e-05
2.12807133e-05
2.023990564e-05
1.881821478e-05
1.71631298e-05
1.539759396e-05
1.373712722e-05
1.312869466e-05
1.22715323e-05
1.125659826e-05
1.016022004e-05
8.621928247e-06
8.278005091e-06
7.774975056e-06
7.168149365e-06
6.504178346e-06
5.242380357e-06
5.05541912e-06
4.769385093e-06
4.417228323e-06
4.026838083e-06
3.080633494e-06
2.98331219e-06
2.826215228e-06
2.628467495e-06
2.406291563e-06
1.746618734e-06
1.698314782e-06
1.615152158e-06
1.507914229e-06
1.385757274e-06
9.537346235e-07
9.31013115e-07
8.886735645e-07
8.326131582e-07
7.678386339e-07
5.004527171e-07
4.904235268e-07
4.697571277e-07
4.415758248e-07
4.085275965e-07
2.517039404e-07
2.476161876e-07
2.379850674e-07
2.24406231e-07
2.082306054e-07
1.210241441e-07
1.195277078e-07
1.152630529e-07
1.090142955e-07
1.014437874e-07
5.549881904e-08
5.503425001e-08
5.324905233e-08
5.051224465e-08
4.71348411e-08
2.422620811e-08
2.412353951e-08
2.342069253e-08
2.228339023e-08
2.085098401e-08
1.005176539e-08
1.005219202e-08
9.793347507e-09
9.3460642e-09
8.769757102e-09
3.960052808e-09
3.9777385e-09
3.889127526e-09
3.722978526e-09
3.503392557e-09
1.480131248e-09
1.493485793e-09
1.465556453e-09
1.407405878e-09
1.328328846e-09
5.243249182e-10
5.315728243e-10
5.236845283e-10
5.045919339e-10
4.776734917e-10
1.760478082e-10
1.793409277e-10
1.773390284e-10
1.714276757e-10
1.627638025e-10
5.589915308e-11
5.722027358e-11
5.679155814e-11
5.506880115e-11
5.24490054e-11
1.668684065e-11
1.716904171e-11
1.71137425e-11
1.666457266e-11
1.593085764e-11
4.483435167e-12
4.64640621e-12
4.657736174e-12
4.555364119e-12
4.368878429e-12
1.159617784e-12
1.211288703e-12
1.220815697e-12
1.198776186e-12
1.153858343e-12
2.708761197e-13
2.860286163e-13
2.904619102e-13
2.869611605e-13
2.776278625e-13
5.568949031e-14
6.023115797e-14
6.196962375e-14
6.173890939e-14
6.008194338e-14
1.005888535e-14
1.100459161e-14
1.136002272e-14
1.131471071e-14
1.106379615e-14
1.174238684e-15
1.319072232e-15
1.39410459e-15
1.407668607e-15
1.379669896e-15
0
0
0
0
0
0
0
0
0
0
0
0
0
0
0
0
1.811473015e-21
0
3.002671513e-21
8.874451161e-20
6.28308705e-18
6.232957106e-18
5.781088786e-18
4.933686578e-18
3.729851519e-18
4.215923188e-17
3.616858021e-17
2.87621825e-17
1.975009266e-17
8.00696773e-18
1.098937344e-16
7.119378581e-17
1.021945956e-18
0
0
9.56170889e-17
5.51865971e-17
1.899854421e-17
0
0
1.574668068e-16
1.198888153e-16
8.94961123e-17
6.881950713e-17
7.459682311e-17
2.657053043e-16
2.575186132e-16
2.57450106e-16
2.777488024e-16
2.826270702e-16
4.766127233e-16
4.7060408e-16
4.646966903e-16
4.574310294e-16
4.477457826e-16
5.539657915e-16
5.434401315e-16
5.313927473e-16
5.171919057e-16
5.002293467e-16
4.961500757e-16
4.905661658e-16
4.823140397e-16
4.694799878e-16
4.310956028e-16
3.90405356e-16
3.902855587e-16
3.902125013e-16
3.886815415e-16
3.848856732e-16
1.34371433e-10
9.341879107e-12
4.25915136e-13
0
0
0
0
0
0
0
0
0
0
0
0
0
0
0
0
0
0
0
0
0
0
0
0
0
0
0
0
0
0
0
0
0
0
0
0
0
0
0
0
0
0
0
0
0
0
0
0
0
0
0
0
0
0
0
0
0
9.445965663e-09
8.040335728e-10
5.596967684e-11
6.294527604e-12
1.212314263e-12
2.204744484e-13
0
0
0
0
0
0
0
0
0
0
0
0
0
0
0
0
0
0
0
0
0
0
0
0
0
0
0
0
0
0
0
0
0
0
0
0
0
0
0
0
0
0
0
0
0
0
0
0
0
0
0
0
0
0
2.915708178e-08
5.191409322e-09
5.1841624e-10
6.552500139e-11
1.457864929e-11
4.800329174e-12
1.82745239e-12
6.304007377e-13
1.165084903e-13
0
0
0
0
0
0
0
0
0
0
0
0
0
0
0
0
0
0
0
0
0
0
0
0
0
0
0
0
0
0
0
0
0
0
0
0
0
0
0
0
0
0
0
0
0
0
0
0
0
0
0
5.507907403e-07
1.20007652e-07
1.304978569e-08
1.054539502e-09
1.65829088e-10
4.747587164e-11
1.853573052e-11
7.864140791e-12
3.184079295e-12
1.099294861e-12
2.413475897e-13
0
0
0
0
0
0
0
0
0
0
0
0
0
0
0
0
0
0
0
0
0
0
0
0
0
0
0
0
0
0
0
0
0
0
0
0
0
0
0
0
0
0
0
0
0
0
0
0
0
1.701864973e-06
5.017626853e-07
1.204552631e-07
1.407765044e-08
1.676391736e-09
3.642496676e-10
1.212648758e-10
4.831066628e-11
1.990718544e-11
7.844897988e-12
2.747308977e-12
7.427674284e-13
7.691334436e-14
0
0
0
0
0
0
0
0
0
0
0
0
0
0
0
0
0
0
0
0
0
0
0
0
0
0
0
0
0
0
0
0
0
0
0
0
0
0
0
0
0
0
0
0
0
0
0
1.642771467e-06
5.655424045e-07
2.619949343e-07
7.763097987e-08
1.031364274e-08
1.72687843e-09
4.770048932e-10
1.732974304e-10
6.878348849e-11
2.709664378e-11
1.000572871e-11
3.25451578e-12
8.075455866e-13
7.371840661e-14
0
0
0
0
0
0
0
0
0
0
0
0
0
0
0
0
0
0
0
0
0
0
0
0
0
0
0
0
0
0
0
0
0
0
0
0
0
0
0
0
0
0
0
0
0
0
1.955296461e-06
4.266090208e-07
3.082799798e-07
2.013936868e-07
5.433748712e-08
7.637256263e-09
1.6032027e-09
5.049258994e-10
1.891372025e-10
7.294390818e-11
2.708026101e-11
9.237344106e-12
2.711279593e-12
5.707454119e-13
1.835859504e-14
0
0
0
0
0
0
0
0
0
0
0
0
0
0
0
0
0
0
0
0
0
0
0
0
0
0
0
0
0
0
0
0
0
0
0
0
0
0
0
0
0
0
0
0
0
4.920639368e-06
4.730468221e-07
3.18799172e-07
3.161955847e-07
1.889784186e-07
3.607580767e-08
5.655562905e-09
1.434072522e-09
4.826390298e-10
1.777411116e-10
6.473082701e-11
2.215018321e-11
6.814816689e-12
1.732567349e-12
2.688032354e-13
0
0
0
0
0
0
0
0
0
0
0
0
0
0
0
0
0
0
0
0
0
0
0
0
0
0
0
0
0
0
0
0
0
0
0
0
0
0
0
0
0
0
0
0
0
2.331514472e-05
1.571454068e-06
5.130917231e-07
4.777834557e-07
4.283730107e-07
1.623372669e-07
2.317532798e-08
4.292912688e-09
1.214392619e-09
4.098796867e-10
1.424410763e-10
4.754499371e-11
1.462807159e-11
3.939268077e-12
8.059403775e-13
5.282554058e-14
0
0
0
0
0
0
0
0
0
0
0
0
0
0
0
0
0
0
0
0
0
0
0
0
0
0
0
0
0
0
0
0
0
0
0
0
0
0
0
0
0
0
0
0
4.64828537e-05
3.410431904e-06
5.971717194e-07
5.758461889e-07
6.443597939e-07
4.504954985e-07
9.529543777e-08
1.310855039e-08
2.954418535e-09
8.856063175e-10
2.884976552e-10
9.253945423e-11
2.78812703e-11
7.586365999e-12
1.716860129e-12
2.320093913e-13
0
0
0
0
0
0
0
0
0
0
0
0
0
0
0
0
0
0
0
0
0
0
0
0
0
0
0
0
0
0
0
0
0
0
0
0
0
0
0
0
0
0
0
0
6.499429876e-05
6.079148249e-06
6.149630188e-07
5.492591429e-07
8.07361719e-07
8.114296248e-07
2.866283397e-07
4.035664275e-08
7.089419341e-09
1.808860662e-09
5.36137909e-10
1.619909056e-10
4.701317402e-11
1.264131916e-11
2.977132169e-12
5.077472748e-13
8.381439386e-15
0
0
0
0
0
0
0
0
0
0
0
0
0
0
0
0
0
0
0
0
0
0
0
0
0
0
0
0
0
0
0
0
0
0
0
0
0
0
0
0
0
0
0
7.265635392e-05
7.475505282e-06
6.772892712e-07
4.413653275e-07
9.363432716e-07
1.19220711e-06
6.879552931e-07
1.198502027e-07
1.814424198e-08
3.729457037e-09
9.565656983e-10
2.636125677e-10
7.207400399e-11
1.880715606e-11
4.482801729e-12
8.555220725e-13
5.689957467e-14
0
0
0
0
0
0
0
0
0
0
0
0
0
0
0
0
0
0
0
0
0
0
0
0
0
0
0
0
0
0
0
0
0
0
0
0
0
0
0
0
0
0
0
0.0001900987522
2.203908537e-05
2.041515595e-06
4.831949621e-07
1.141401277e-06
1.707751192e-06
1.314723054e-06
3.335754197e-07
4.573345941e-08
7.693233374e-09
1.623249046e-09
3.920090285e-10
9.869963665e-11
2.471989068e-11
5.907395932e-12
1.210197041e-12
1.259749011e-13
0
0
0
0
0
0
0
0
0
0
0
0
0
0
0
0
0
0
0
0
0
0
0
0
0
0
0
0
0
0
0
0
0
0
0
0
0
0
0
0
0
0
0
0.0003368800081
4.43002507e-05
4.402031739e-06
6.171886662e-07
1.378104781e-06
2.406347132e-06
2.226387604e-06
8.105777273e-07
1.103741878e-07
1.612070446e-08
2.746378151e-09
5.614506042e-10
1.270038493e-10
3.014563235e-11
7.184705169e-12
1.555410941e-12
2.073536149e-13
0
0
0
0
0
0
0
0
0
0
0
0
0
0
0
0
0
0
0
0
0
0
0
0
0
0
0
0
0
0
0
0
0
0
0
0
0
0
0
0
0
0
0
0.0004742729512
7.044111323e-05
8.692710342e-06
1.059825943e-06
1.748503531e-06
3.373640122e-06
3.350294807e-06
1.651587183e-06
2.708657863e-07
3.642064236e-08
4.761177002e-09
7.698110724e-10
1.512958126e-10
3.387488205e-11
8.099418166e-12
1.842898474e-12
2.858163346e-13
5.674488642e-16
0
0
0
0
0
0
0
0
0
0
0
0
0
0
0
0
0
0
0
0
0
0
0
0
0
0
0
0
0
0
0
0
0
0
0
0
0
0
0
0
0
0
0.0005690346228
9.527626108e-05
1.352880147e-05
1.745676498e-06
2.548896855e-06
4.880401491e-06
4.710318121e-06
2.690711188e-06
6.089001455e-07
8.423744703e-08
8.607947524e-09
1.029631929e-09
1.688976491e-10
3.587878881e-11
8.732705832e-12
2.084394309e-12
3.591841327e-13
3.211158271e-15
0
0
0
0
0
0
0
0
0
0
0
0
0
0
0
0
0
0
0
0
0
0
0
0
0
0
0
0
0
0
0
0
0
0
0
0
0
0
0
0
0
0
0.0006275141113
0.0001103550482
1.705903682e-05
2.498508673e-06
4.738102236e-06
7.385458642e-06
6.305701037e-06
3.595254932e-06
1.15781638e-06
1.817053959e-07
1.600449586e-08
1.42944328e-09
1.973236776e-10
4.043042042e-11
9.967317904e-12
2.445683155e-12
4.560474157e-13
1.226522251e-14
0
0
0
0
0
0
0
0
0
0
0
0
0
0
0
0
0
0
0
0
0
0
0
0
0
0
0
0
0
0
0
0
0
0
0
0
0
0
0
0
0
0
0.0006403450604
0.0001158164033
1.77455452e-05
4.733987763e-06
1.011741864e-05
1.095541743e-05
7.976150199e-06
4.359856751e-06
1.686686685e-06
3.672987744e-07
3.624620407e-08
2.787667542e-09
3.211324573e-10
5.812465009e-11
1.343821357e-11
3.236328737e-12
6.346131846e-13
3.867399636e-14
0
0
0
0
0
0
0
0
0
0
0
0
0
0
0
0
0
0
0
0
0
0
0
0
0
0
0
0
0
0
0
0
0
0
0
0
0
0
0
0
0
0
0.0004795929181
8.549584938e-05
1.353627258e-05
1.505556575e-05
1.831472545e-05
1.485613535e-05
9.484515283e-06
5.019866083e-06
2.161675572e-06
6.759113536e-07
1.204683288e-07
1.143154144e-08
9.986149074e-10
1.256170566e-10
2.289014326e-11
4.974477108e-12
9.885211663e-13
1.009089644e-13
0
0
0
0
0
0
0
0
0
0
0
0
0
0
0
0
0
0
0
0
0
0
0
0
0
0
0
0
0
0
0
0
0
0
0
0
0
0
0
0
0
0
0.0001508693164
3.429421152e-05
3.907136869e-05
3.66387223e-05
2.773651161e-05
1.837527298e-05
1.088634745e-05
5.759331386e-06
2.682888672e-06
1.061520555e-06
3.131299842e-07
5.352171798e-08
5.071782207e-09
4.467624724e-10
5.500265216e-11
9.429791592e-12
1.773249636e-12
2.4350671e-13
0
0
0
0
0
0
0
0
0
0
0
0
0
0
0
0
0
0
0
0
0
0
0
0
0
0
0
0
0
0
0
0
0
0
0
0
0
0
0
0
0
0
0.0002300347141
0.0001256544641
8.020975648e-05
5.276355862e-05
3.404724041e-05
2.103269791e-05
1.221800591e-05
6.59158034e-06
3.265496643e-06
1.458082951e-06
5.620598254e-07
1.630614082e-07
2.747152033e-08
2.540605831e-09
2.156855528e-10
2.505208028e-11
3.847556802e-12
5.80913334e-13
1.579899321e-14
0
0
0
0
0
0
0
0
0
0
0
0
0
0
0
0
0
0
0
0
0
0
0
0
0
0
0
0
0
0
0
0
0
0
0
0
0
0
0
0
0
0.0002185838641
0.0001402323952
9.065935086e-05
5.845547226e-05
3.704023315e-05
2.271301362e-05
1.332220566e-05
7.409506838e-06
3.873680615e-06
1.878946124e-06
8.262212671e-07
3.142638572e-07
8.987455634e-08
1.474417362e-08
1.294059804e-09
1.032474786e-10
1.096723723e-11
1.464749764e-12
1.278650212e-13
0
0
0
0
0
0
0
0
0
0
0
0
0
0
0
0
0
0
0
0
0
0
0
0
0
0
0
0
0
0
0
0
0
0
0
0
0
0
0
0
0
0.0001863796671
0.0001293356625
8.756355557e-05
5.796343535e-05
3.738444448e-05
2.334605489e-05
1.403626592e-05
8.082166769e-06
4.429395449e-06
2.288526517e-06
1.096972093e-06
4.747535467e-07
1.766296368e-07
4.897262831e-08
7.623491508e-09
6.15758822e-10
4.486788158e-11
4.353760952e-12
4.421182516e-13
6.260018341e-16
0
0
0
0
0
0
0
0
0
0
0
0
0
0
0
0
0
0
0
0
0
0
0
0
0
0
0
0
0
0
0
0
0
0
0
0
0
0
0
0
0.0001547898341
0.0001124962126
7.90449509e-05
5.388739654e-05
3.56679085e-05
2.286069682e-05
1.414723534e-05
8.427509365e-06
4.81086862e-06
2.612696281e-06
1.334058911e-06
6.285236585e-07
2.651146784e-07
9.509633439e-08
2.505261397e-08
3.607593871e-09
2.59816268e-10
1.745670313e-11
1.454744191e-12
6.243702436e-14
0
0
0
0
0
0
0
0
0
0
0
0
0
0
0
0
0
0
0
0
0
0
0
0
0
0
0
0
0
0
0
0
0
0
0
0
0
0
0
0
0.000124252936
9.283140822e-05
6.697621467e-05
4.714756853e-05
3.205155861e-05
2.11122818e-05
1.345805045e-05
8.281301709e-06
4.902365243e-06
2.775718475e-06
1.489408411e-06
7.469218537e-07
3.427899855e-07
1.392978445e-07
4.74012801e-08
1.158325741e-08
1.499172025e-09
9.721348021e-11
5.880883333e-12
3.545904439e-13
0
0
0
0
0
0
0
0
0
0
0
0
0
0
0
0
0
0
0
0
0
0
0
0
0
0
0
0
0
0
0
0
0
0
0
0
0
0
0
0
9.623086523e-05
7.403647337e-05
5.519508097e-05
3.988172546e-05
2.789830238e-05
1.887340884e-05
1.234591059e-05
7.820484129e-06
4.777640107e-06
2.801093451e-06
1.564290392e-06
8.230971633e-07
4.017173782e-07
1.776764626e-07
6.865958337e-08
2.178909224e-08
4.810707571e-09
5.405245147e-10
3.082892946e-11
1.59128916e-12
2.094887333e-14
0
0
0
0
0
0
0
0
0
0
0
0
0
0
0
0
0
0
0
0
0
0
0
0
0
0
0
0
0
0
0
0
0
0
0
0
0
0
0
7.326700853e-05
5.751790907e-05
4.376669513e-05
3.231804883e-05
2.316874857e-05
1.611144331e-05
1.084428667e-05
7.056232134e-06
4.428399884e-06
2.673836757e-06
1.543123988e-06
8.436190493e-07
4.31529444e-07
2.029584315e-07
8.552039313e-08
3.097964867e-08
8.986761442e-09
1.733189844e-09
1.604787859e-10
7.704766362e-12
2.470155521e-13
0
0
0
0
0
0
0
0
0
0
0
0
0
0
0
0
0
0
0
0
0
0
0
0
0
0
0
0
0
0
0
0
0
0
0
0
0
0
0
5.433750068e-05
4.337525932e-05
3.3609544e-05
2.530716718e-05
1.852588482e-05
1.318058547e-05
9.101362153e-06
6.081414683e-06
3.920562834e-06
2.427555821e-06
1.439487819e-06
8.113958302e-07
4.304124156e-07
2.119096544e-07
9.494224259e-08
3.758319801e-08
1.253276441e-08
3.231751792e-09
5.220282489e-10
3.773777777e-11
1.383127851e-12
2.979749048e-17
0
0
0
0
0
0
0
0
0
0
0
0
0
0
0
0
0
0
0
0
0
0
0
0
0
0
0
0
0
0
0
0
0
0
0
0
0
0
3.943611277e-05
3.194851026e-05
2.51590645e-05
1.9276122e-05
1.43730791e-05
1.0425747e-05
7.347846084e-06
5.020100746e-06
3.312280995e-06
2.102136723e-06
1.276456907e-06
7.371890497e-07
4.022497814e-07
2.050263925e-07
9.608799309e-08
4.048197517e-08
1.481649588e-08
4.462593668e-09
1.012465997e-09
1.343251767e-10
7.538962185e-12
1.369602064e-13
0
0
0
0
0
0
0
0
0
0
0
0
0
0
0
0
0
0
0
0
0
0
0
0
0
0
0
0
0
0
0
0
0
0
0
0
0
0
2.80864147e-05
2.305448748e-05
1.841397505e-05
1.432074759e-05
1.08454758e-05
7.99395483e-06
5.727564464e-06
3.981097144e-06
2.676220288e-06
1.732137739e-06
1.074264116e-06
6.344974479e-07
3.53893654e-07
1.852400568e-07
8.981869151e-08
3.962217561e-08
1.549795172e-08
5.153135127e-09
1.36252797e-09
2.593796942e-10
2.647659969e-11
9.719531307e-13
0
0
0
0
0
0
0
0
0
0
0
0
0
0
0
0
0
0
0
0
0
0
0
0
0
0
0
0
0
0
0
0
0
0
0
0
0
0
1.962063952e-05
1.628950127e-05
1.316747489e-05
1.036812131e-05
7.951859161e-06
5.936490655e-06
4.308712789e-06
3.034616417e-06
2.068546401e-06
1.359650774e-06
8.573617443e-07
5.157348063e-07
2.938189142e-07
1.569047666e-07
7.803642486e-08
3.561179048e-08
1.460607245e-08
5.222460611e-09
1.533230198e-09
3.302404997e-10
4.844207789e-11
3.244486617e-12
1.301091384e-14
0
0
0
0
0
0
0
0
0
0
0
0
0
0
0
0
0
0
0
0
0
0
0
0
0
0
0
0
0
0
0
0
0
0
0
0
0
1.339972747e-05
1.123133994e-05
9.168364564e-06
7.291417233e-06
5.648235702e-06
4.258876378e-06
3.121964605e-06
2.220937303e-06
1.529556997e-06
1.016577652e-06
6.492475177e-07
3.96172188e-07
2.294505745e-07
1.250494545e-07
6.342155927e-08
2.970406888e-08
1.263142168e-08
4.756187387e-09
1.512727337e-09
3.715040776e-10
6.890612715e-11
7.610729569e-12
2.555821673e-13
0
0
0
0
0
0
0
0
0
0
0
0
0
0
0
0
0
0
0
0
0
0
0
0
0
0
0
0
0
0
0
0
0
0
0
0
0
8.905535205e-06
7.523521523e-06
6.190667344e-06
4.962484751e-06
3.874349044e-06
2.94394624e-06
2.174595283e-06
1.55886204e-06
1.082004067e-06
7.250322135e-07
4.672554496e-07
2.881894266e-07
1.690366164e-07
9.358475607e-08
4.840967026e-08
2.314947385e-08
1.012557287e-08
3.967775791e-09
1.347773915e-09
3.576407375e-10
5.599587259e-11
6.636281866e-12
3.106294636e-13
0
0
0
0
0
0
0
0
0
0
0
0
0
0
0
0
0
0
0
0
0
0
0
0
0
0
0
0
0
0
0
0
0
0
0
0
0
5.736046404e-06
4.877922064e-06
4.040027398e-06
3.259303583e-06
2.560553626e-06
1.95751581e-06
1.454589327e-06
1.048893486e-06
7.323897587e-07
4.938190582e-07
3.203959122e-07
1.991569734e-07
1.179284139e-07
6.605238647e-08
3.470114278e-08
1.690067791e-08
7.55893076e-09
3.053897149e-09
1.077249496e-09
3.018446334e-10
4.966141942e-11
0
0
0
0
0
0
0
0
0
0
0
0
0
0
0
0
0
0
0
0
0
0
0
0
0
0
0
0
0
0
0
0
0
0
0
0
0
0
0
3.570399572e-06
3.053453884e-06
2.542869661e-06
2.062346771e-06
1.628441723e-06
1.250978426e-06
9.339165982e-07
6.764975478e-07
4.744945092e-07
3.214147629e-07
2.095801108e-07
1.310180082e-07
7.81372795e-08
4.417702983e-08
2.349344678e-08
1.163443079e-08
5.300203875e-09
2.195281805e-09
8.025690166e-10
2.454278011e-10
4.297570584e-11
0
0
0
0
0
0
0
0
0
0
0
0
0
0
0
0
0
0
0
0
0
0
0
0
0
0
0
0
0
0
0
0
0
0
0
0
0
0
0
2.143798406e-06
1.842493451e-06
1.541645046e-06
1.255896361e-06
9.958070297e-07
7.67969649e-07
5.754214083e-07
4.182596876e-07
2.943554482e-07
2.000739025e-07
1.309410854e-07
8.220675769e-08
4.928391957e-08
2.805597338e-08
1.506069737e-08
7.558015748e-09
3.502520472e-09
1.479338535e-09
5.545426689e-10
1.706425593e-10
2.932612962e-11
0
0
0
0
0
0
0
0
0
0
0
0
0
0
0
0
0
0
0
0
0
0
0
0
0
0
0
0
0
0
0
0
0
0
0
0
0
0
0
1.239929634e-06
1.070320182e-06
8.99203365e-07
7.352836258e-07
5.850068158e-07
4.525574322e-07
3.40040821e-07
2.478008537e-07
1.748155597e-07
1.191101661e-07
7.815758248e-08
4.922059314e-08
2.9625672e-08
1.695754256e-08
9.172771093e-09
4.651384338e-09
2.186933435e-09
9.376619918e-10
3.574245322e-10
1.118522155e-10
2.599033329e-11
0
0
0
0
0
0
0
0
0
0
0
0
0
0
0
0
0
0
0
0
0
0
0
0
0
0
0
0
0
0
0
0
0
0
0
0
0
0
0
6.89712634e-07
5.976618378e-07
5.038702472e-07
4.133121908e-07
3.297529639e-07
2.557129714e-07
1.925406219e-07
1.405702788e-07
9.933472156e-08
6.779370662e-08
4.456599016e-08
2.812887691e-08
1.698132001e-08
9.760345905e-09
5.310864349e-09
2.716119857e-09
1.292603707e-09
5.633657815e-10
2.168072217e-10
6.786885892e-11
1.189435222e-11
1.630625965e-13
0
0
0
0
0
0
0
0
0
0
0
0
0
0
0
0
0
0
0
0
0
0
0
0
0
0
0
0
0
0
0
0
0
0
0
0
0
0
3.682552692e-07
3.201947059e-07
2.707595376e-07
2.226797177e-07
1.780584655e-07
1.383376127e-07
1.043236799e-07
7.626312943e-08
5.395194834e-08
3.686073707e-08
2.42609219e-08
1.533709209e-08
9.279694207e-09
5.351069124e-09
2.925825878e-09
1.506635315e-09
7.232413449e-10
3.184231545e-10
1.224908164e-10
3.722955174e-11
4.496212239e-12
0
0
0
0
0
0
0
0
0
0
0
0
0
0
0
0
0
0
0
0
0
0
0
0
0
0
0
0
0
0
0
0
0
0
0
0
0
0
0
1.883128571e-07
1.64236967e-07
1.392451944e-07
1.147728985e-07
9.194210943e-08
7.153653356e-08
5.400925094e-08
3.951730084e-08
2.797665146e-08
1.912714498e-08
1.25992383e-08
7.973900148e-09
4.832837758e-09
2.794021439e-09
1.533602808e-09
7.941076023e-10
3.841360873e-10
1.700077896e-10
6.468620279e-11
1.812887512e-11
5.808367221e-13
6.813939564e-15
0
0
0
0
0
0
0
0
0
0
0
0
0
0
0
0
0
0
0
0
0
0
0
0
0
0
0
0
0
0
0
0
0
0
0
0
0
0
9.202119214e-08
8.048223351e-08
6.839621759e-08
5.648479483e-08
4.531863783e-08
3.530255405e-08
2.667649628e-08
1.953102418e-08
1.38338435e-08
9.462075366e-09
6.236136916e-09
3.949985962e-09
2.397129751e-09
1.388667052e-09
7.646150102e-10
3.977105125e-10
1.934620381e-10
8.590745055e-11
3.340774667e-11
7.915116865e-12
1.924031915e-13
0
0
0
0
0
0
0
0
0
0
0
0
0
0
0
0
0
0
0
0
0
0
0
0
0
0
0
0
0
0
0
0
0
0
0
0
0
0
0
4.288354011e-08
3.760673838e-08
3.202970891e-08
2.649854556e-08
2.128958563e-08
1.660146315e-08
1.255420913e-08
9.196127709e-09
6.515915369e-09
4.458053224e-09
2.939272842e-09
1.862848894e-09
1.131613143e-09
6.565331636e-10
3.623406364e-10
1.889872852e-10
9.202541927e-11
4.035188816e-11
1.520155765e-11
2.107936519e-12
0
0
0
0
0
0
0
0
0
0
0
0
0
0
0
0
0
0
0
0
0
0
0
0
0
0
0
0
0
0
0
0
0
0
0
0
0
0
0
0
1.902618951e-08
1.672894284e-08
1.427857717e-08
1.183294513e-08
9.519328054e-09
7.430241787e-09
5.622487131e-09
4.120482993e-09
2.920480718e-09
1.99857985e-09
1.318099752e-09
8.357516205e-10
5.08051376e-10
2.950649627e-10
1.631593995e-10
8.530817118e-11
4.165436082e-11
1.837780205e-11
6.856593972e-12
2.035303088e-12
0
0
0
0
0
0
0
0
0
0
0
0
0
0
0
0
0
0
0
0
0
0
0
0
0
0
0
0
0
0
0
0
0
0
0
0
0
0
0
0
8.02604612e-09
7.075704762e-09
6.052244153e-09
5.024157688e-09
4.047204167e-09
3.162158543e-09
2.394536599e-09