/*--------------------------------*- C++ -*----------------------------------*\
  =========                 |
  \\      /  F ield         | OpenFOAM: The Open Source CFD Toolbox
   \\    /   O peration     | Website:  https://openfoam.org
    \\  /    A nd           | Version:  10
     \\/     M anipulation  |
\*---------------------------------------------------------------------------*/
FoamFile
{
    format      ascii;
    class       volScalarField;
    location    "0.0250188088";
    object      C2H3_0;
}
// * * * * * * * * * * * * * * * * * * * * * * * * * * * * * * * * * * * * * //

dimensions      [0 0 0 0 0 0 0];

internalField   nonuniform List<scalar> 
5170
(
0
0
0
0
0
0
0
0
0
0
0
0
0
0
0
0
0
0
0
0
0
0
0
0
0
0
0
0
0
0
0
0
0
0
0
0
0
0
0
0
0
0
0
0
0
0
0
0
0
0
0
0
0
0
0
0
0
0
0
0
0
0
0
0
0
0
0
0
0
0
0
0
0
0
0
0
0
0
0
0
0
0
0
0
0
0
0
0
0
0
0
0
0
0
0
0
0
0
0
0
1.102701912e-21
2.384157587e-23
0
0
0
7.749992722e-22
0
0
0
0
1.291042816e-22
0
4.227536225e-22
0
2.466881088e-23
3.529948392e-23
4.368517499e-22
1.644909959e-23
0
0
0
6.040174346e-21
0
0
0
0
0
0
0
0
0
0
0
7.887154967e-16
0
0
0
0
0
0
0
0
0
0
0
0
6.355457693e-13
6.186316817e-14
3.002128934e-14
1.620302017e-15
1.181399076e-14
7.666306435e-13
0
0
6.283134071e-15
7.472923649e-16
3.622444356e-14
3.083644358e-14
1.946934504e-15
2.430135179e-14
4.362676622e-15
1.717605824e-15
0
1.118403004e-14
3.107609155e-13
5.349675776e-14
5.879336609e-16
6.417676862e-15
7.699167269e-14
7.240743994e-13
4.387760902e-13
4.728196514e-14
1.274327027e-14
2.960798154e-13
4.531206138e-13
5.933284182e-13
3.194840107e-13
2.735849142e-13
6.274292912e-13
5.424947148e-13
4.414874118e-13
6.513035268e-13
6.019928894e-13
4.939989215e-13
9.85082176e-13
4.467669717e-13
4.614736192e-13
4.447560595e-13
4.892840655e-13
5.141483869e-13
1.117407655e-12
7.206619787e-13
5.604244199e-13
8.866060606e-13
2.237640989e-13
1.213671714e-11
2.532269677e-11
7.82842488e-12
1.726712268e-12
8.770721474e-14
0
0
0
0
5.709485706e-11
0
2.177376947e-14
6.718554045e-12
9.812847843e-11
3.140320621e-09
0
3.247789319e-13
9.81884193e-12
1.371167363e-10
2.766978689e-09
0
6.42202093e-13
9.828860468e-12
1.29927395e-10
1.877523758e-09
0
1.526997917e-12
1.657914904e-11
2.195443411e-10
3.087420109e-09
0
2.963649159e-12
2.250207058e-11
3.808231128e-10
4.504754251e-09
3.524642006e-13
5.563206809e-12
3.334781749e-11
4.894814259e-10
4.735127227e-09
4.897999532e-13
3.844479048e-12
4.09578712e-11
4.885769037e-10
3.885763004e-09
5.10226339e-14
2.941902816e-14
4.700063085e-11
4.733330791e-10
3.344768065e-09
2.218292414e-13
3.484649066e-12
5.732864915e-11
5.082943443e-10
3.351091414e-09
1.722926396e-12
9.979025313e-12
7.961912627e-11
6.277320884e-10
3.884628437e-09
1.673240996e-12
1.283646061e-11
1.115641041e-10
7.799803311e-10
4.424477349e-09
0
1.833329551e-11
1.375770576e-10
8.331779384e-10
4.213228773e-09
3.956673422e-12
2.596617702e-11
1.682463909e-10
9.276275196e-10
4.417611564e-09
8.513661316e-12
3.794409006e-11
2.119510902e-10
1.071228554e-09
4.823341e-09
1.428736021e-11
5.119185278e-11
2.477236783e-10
1.131010496e-09
4.676632071e-09
2.715275003e-11
8.155897576e-11
3.340413682e-10
1.385675832e-09
5.376476465e-09
5.311390727e-11
1.349232785e-10
4.627121537e-10
1.43565094e-09
4.731840045e-09
5.116441878e-11
1.335191833e-10
6.052539345e-10
2.074895862e-09
8.092643591e-09
1.250627772e-10
2.755181852e-10
8.682226113e-10
2.806264409e-09
9.141512625e-09
1.877043288e-10
3.28509863e-10
7.936464757e-10
2.061597443e-09
5.350627838e-09
2.211151064e-10
3.05741155e-10
5.418355961e-10
1.058717427e-09
2.119539964e-09
1.627497153e-10
1.937789841e-10
2.707501529e-10
4.131101575e-10
6.549280976e-10
7.501712294e-11
8.379569115e-11
1.007725547e-10
1.26663331e-10
1.658668287e-10
2.336050251e-11
2.449208902e-11
2.669151165e-11
3.014432446e-11
3.427144501e-11
5.090488242e-12
5.179445211e-12
5.44610413e-12
5.657697023e-12
5.787437415e-12
1.035463199e-12
1.045812487e-12
1.051950229e-12
1.026454984e-12
9.911888475e-13
2.065326464e-13
2.051676063e-13
1.998203179e-13
1.896441903e-13
1.761965957e-13
4.219366102e-14
4.164658291e-14
4.020308662e-14
3.745336955e-14
3.304835677e-14
9.185006687e-15
9.134023757e-15
8.999523234e-15
8.400786962e-15
7.432888432e-15
1.259169527e-15
1.303466342e-15
1.443715596e-15
1.764569892e-15
1.723075374e-15
4.686317575e-16
4.684973349e-16
4.702464031e-16
4.760456792e-16
4.621627471e-16
1.635775737e-16
1.611349639e-16
1.555859352e-16
1.506843105e-16
1.449108339e-16
6.907139521e-17
6.856711854e-17
6.751976895e-17
6.626662686e-17
6.495364829e-17
3.945655857e-17
3.924500028e-17
3.888584242e-17
3.843399964e-17
3.798837687e-17
2.583195393e-17
2.58981571e-17
2.604591065e-17
2.629199527e-17
2.667699664e-17
1.784720344e-17
1.793306541e-17
1.811272743e-17
1.83754473e-17
1.871161549e-17
1.035106609e-17
1.041124387e-17
1.052476821e-17
1.074254429e-17
1.104014706e-17
5.183566697e-18
5.208057385e-18
5.255280864e-18
5.323606966e-18
5.420535191e-18
2.166866801e-18
2.191290588e-18
2.237553422e-18
2.21323093e-18
2.052369432e-18
1.70704832e-19
1.741264109e-19
1.797518226e-19
1.736901219e-19
1.142341432e-19
0
0
0
0
0
0
4.200186206e-20
1.04863566e-19
1.116725091e-19
8.353194038e-20
6.80141704e-20
6.913467659e-20
6.685702603e-20
5.981754273e-20
4.317719744e-20
0
0
0
0
0
0
0
0
0
0
0
0
0
0
0
2.12367967e-21
8.720300383e-22
0
0
1.916432801e-21
0
0
0
0
0
7.256503414e-22
7.601241261e-22
0
0
0
0
0
0
0
0
0
0
0
0
0
0
0
0
0
0
0
0
0
0
0
0
0
0
0
0
8.89519536e-22
8.44010623e-22
7.427214536e-22
5.287903624e-22
0
0
0
0
0
0
0
0
0
0
0
0
0
0
0
0
2.434890501e-21
2.3873905e-21
2.327807098e-21
2.249659329e-21
2.17825362e-21
4.177535668e-21
4.22406015e-21
4.307313203e-21
4.395216627e-21
4.473740911e-21
7.072158134e-21
7.064284099e-21
7.049101447e-21
7.027584058e-21
6.997782966e-21
6.133388037e-21
6.192915406e-21
6.316302892e-21
6.464288977e-21
6.510886894e-21
1.517309899e-20
1.520856052e-20
1.525499234e-20
1.529134346e-20
1.518768048e-20
1.812369302e-20
1.813748445e-20
1.812142329e-20
1.803471155e-20
1.772055125e-20
1.7054191e-20
1.689715709e-20
1.650644645e-20
1.585360225e-20
1.479868969e-20
6.002679878e-21
6.159039856e-21
6.485609126e-21
6.949076941e-21
7.484242195e-21
2.016046776e-20
2.015642879e-20
2.013828052e-20
2.010710833e-20
2.008006877e-20
2.333370245e-20
2.32506114e-20
2.302380186e-20
2.260176273e-20
2.194504928e-20
5.704739791e-21
5.776042153e-21
5.881408539e-21
5.938136631e-21
5.821649835e-21
4.74371956e-10
3.611290603e-08
2.043041039e-08
1.068941146e-08
2.031437471e-08
2.60322479e-08
2.341455201e-08
1.65458268e-08
1.345017888e-08
1.306357927e-08
1.463784123e-08
1.562102376e-08
1.361016831e-08
1.384299421e-08
1.462666394e-08
1.320681782e-08
1.398499823e-08
1.664884279e-08
2.271746251e-08
2.222648897e-08
1.078716838e-08
3.522452216e-09
9.212364969e-10
2.040296291e-10
3.819836078e-11
5.980926091e-12
9.764950837e-13
1.679002407e-13
2.833540357e-14
6.603742275e-15
1.578806679e-15
4.434445226e-16
1.415639702e-16
6.438559246e-17
3.778647232e-17
2.706518564e-17
1.8997609e-17
1.13008242e-17
5.489314342e-18
1.893775676e-18
0
0
6.276278716e-20
1.203064106e-20
0
0
0
5.767958707e-21
0
0
0
0
0
0
0
0
0
0
0
2.129632546e-21
4.504674423e-21
6.963160491e-21
6.458934989e-21
1.48887272e-20
1.720498251e-20
1.370523191e-20
7.835050452e-21
2.01499719e-20
2.143926879e-20
5.669804748e-21
1.752005011e-09
8.585510954e-09
5.253657622e-10
6.387659438e-11
4.651678278e-12
2.037278989e-07
3.401977927e-06
1.952790981e-07
5.819587962e-09
2.251745615e-10
8.408488615e-08
7.276905127e-07
8.704134635e-08
5.082944556e-09
4.224805492e-10
3.984859118e-08
3.325036852e-07
1.67495352e-06
1.295079904e-07
6.682567842e-09
9.089897058e-08
1.092473731e-06
1.120015843e-05
1.098402593e-06
7.641711072e-08
1.05898848e-07
1.079268046e-06
9.087192394e-06
1.166599146e-06
1.069635912e-07
8.596049667e-08
7.416973463e-07
5.179462685e-06
8.240288205e-07
9.616379022e-08
5.492185902e-08
4.028990414e-07
2.439754459e-06
1.23809915e-06
1.647550569e-07
4.388895555e-08
3.212039582e-07
2.050064243e-06
6.743980448e-06
9.987096094e-07
4.193719382e-08
3.134173865e-07
2.026632103e-06
9.960532269e-06
1.617002546e-06
4.612329008e-08
3.186765309e-07
1.977714381e-06
9.908982668e-06
1.812547905e-06
4.692046101e-08
2.969276238e-07
1.723945411e-06
8.269981253e-06
1.702705746e-06
3.846042357e-08
2.548571255e-07
1.315431904e-06
5.861511761e-06
2.613434327e-06
3.865252113e-08
2.323522302e-07
1.122131946e-06
4.977840159e-06
6.309648562e-06
3.653715412e-08
2.026498387e-07
1.003815731e-06
4.363200236e-06
7.707360427e-06
3.428939052e-08
1.82126727e-07
9.310043148e-07
3.924090093e-06
8.441911648e-06
3.500966432e-08
1.767569782e-07
8.819443937e-07
3.587811541e-06
8.476021036e-06
4.251204837e-08
2.107192773e-07
9.544246279e-07
3.795461492e-06
8.63399369e-06
5.632105292e-08
2.714876416e-07
1.193199816e-06
4.598014641e-06
8.267021577e-06
5.299034564e-08
2.33537932e-07
9.160431709e-07
3.05919275e-06
3.866295167e-06
2.264864323e-08
7.584594889e-08
2.222987588e-07
5.319879095e-07
6.774550493e-07
6.351060549e-09
1.58358846e-08
3.494489833e-08
6.40602468e-08
7.263245607e-08
1.433130574e-09
2.72468552e-09
4.63261539e-09
6.700725143e-09
6.714245672e-09
2.778489698e-10
4.160647747e-10
5.627618819e-10
6.647976292e-10
5.948156686e-10
4.804857161e-11
5.799814638e-11
6.51295765e-11
6.518898794e-11
5.279422992e-11
6.61771919e-12
6.941217548e-12
6.587925025e-12
5.604590131e-12
4.096844874e-12
1.00680755e-12
9.504946353e-13
8.009826467e-13
6.167854739e-13
4.221574153e-13
1.643754592e-13
1.438739728e-13
1.213563186e-13
7.625099746e-14
1.963587953e-14
1.865313248e-14
2.420209967e-14
2.012824949e-14
1.229572351e-14
1.075058743e-15
5.385620678e-15
3.577937421e-15
3.235931541e-15
2.676912217e-15
1.31746423e-15
1.444603171e-15
1.111270276e-15
7.592197273e-16
6.943496975e-16
4.947437165e-16
4.249416474e-16
3.546710065e-16
2.587705164e-16
2.077481238e-16
1.674973839e-16
1.39741831e-16
1.244842737e-16
1.105798825e-16
9.336659093e-17
7.856412021e-17
6.445450092e-17
5.921454275e-17
5.239270025e-17
4.830292586e-17
4.862714174e-17
3.773884017e-17
3.724747384e-17
3.66152613e-17
3.770099367e-17
3.79886735e-17
2.766962337e-17
2.887481363e-17
2.938264348e-17
3.020134875e-17
3.160035722e-17
1.953746237e-17
2.031740456e-17
2.094699945e-17
2.160151126e-17
2.122988345e-17
1.177671625e-17
1.223474894e-17
1.195574536e-17
1.134331763e-17
1.106330305e-17
5.637810246e-18
5.42666951e-18
4.673075952e-18
3.98446366e-18
3.90238044e-18
1.645949856e-18
1.067672228e-18
3.480769649e-19
1.005932616e-20
5.189850141e-19
0
0
0
1.971773727e-20
6.787810777e-20
0
0
4.86418157e-20
3.533971766e-20
0
5.8391328e-20
5.545111725e-20
2.698438535e-20
0
0
0
0
0
0
0
0
0
0
0
0
0
0
0
0
0
0
0
1.084097392e-19
1.15815023e-19
3.848370235e-20
7.298111427e-21
2.272818937e-20
3.12155045e-20
8.848035798e-21
0
7.239649444e-22
0
0
0
0
0
0
0
0
0
0
0
0
0
0
0
0
0
0
0
0
0
0
0
0
0
0
0
0
0
0
1.920365074e-22
0
0
0
0
0
0
0
0
0
0
0
0
0
0
0
0
0
0
0
0
0
0
8.911433345e-22
1.976715522e-21
1.989878877e-21
2.037424353e-21
2.508870645e-21
2.680890213e-21
4.529845495e-21
4.603623232e-21
4.685444638e-21
4.771774641e-21
4.896055596e-21
6.902947916e-21
6.952020875e-21
7.228941793e-21
7.725417179e-21
8.524289023e-21
6.558084472e-21
8.473859442e-21
1.252424191e-20
1.358613859e-20
1.424640203e-20
1.55760846e-20
1.57905861e-20
1.58576064e-20
1.569202316e-20
1.517581512e-20
1.753534851e-20
1.688508111e-20
1.583707525e-20
1.441438661e-20
1.266068316e-20
1.319027743e-20
1.126773146e-20
9.229614183e-21
5.22974162e-21
4.562987534e-21
8.515492969e-21
9.465079875e-21
1.069136277e-20
1.153438127e-20
1.287992342e-20
2.064528788e-20
2.208234732e-20
2.198213809e-20
2.094343775e-20
1.896535388e-20
2.09787864e-20
1.906819615e-20
1.589202651e-20
1.195597536e-20
7.339811954e-21
5.765385329e-21
2.52355549e-21
0
0
0
1.11134238e-14
0
0
0
0
0
0
0
0
0
0
0
0
0
0
0
0
0
0
0
0
0
0
0
0
0
0
0
0
0
0
0
0
0
0
0
0
0
0
0
0
0
0
0
0
0
0
0
0
0
0
0
0
0
0
0
0
0
0
0
7.842772683e-13
1.413357912e-14
0
0
0
0
0
0
0
0
0
0
0
0
0
0
0
0
0
0
0
0
0
0
0
0
0
0
0
0
0
0
0
0
0
0
0
0
0
0
0
0
0
0
0
0
0
0
0
0
0
0
0
0
0
0
0
0
0
0
2.416003858e-12
0
0
0
0
0
0
0
0
0
0
0
0
0
0
0
0
0
0
0
0
0
0
0
0
0
0
0
0
0
0
0
0
0
0
0
0
0
0
0
0
0
0
0
0
0
0
0
0
0
0
0
0
0
0
0
0
0
0
0
1.030149512e-10
3.787184845e-13
3.038639503e-14
0
0
0
0
0
0
0
0
0
0
0
0
0
0
0
0
0
0
0
0
0
0
0
0
0
0
0
0
0
0
0
0
0
0
0
0
0
0
0
0
0
0
0
0
0
0
0
0
0
0
0
0
0
0
0
0
0
2.192212972e-09
1.77025728e-11
1.310955207e-13
4.185842119e-14
0
0
0
0
0
0
0
0
0
0
0
0
0
0
0
0
0
0
0
0
0
0
0
0
0
0
0
0
0
0
0
0
0
0
0
0
0
0
0
0
0
0
0
0
0
0
0
0
0
0
0
0
0
0
0
0
5.527518797e-09
1.103391881e-10
7.066394756e-13
1.845757985e-13
1.259766742e-14
0
0
0
0
0
0
0
0
0
0
0
0
0
0
0
0
0
0
0
0
0
0
0
0
0
0
0
0
0
0
0
0
0
0
0
0
0
0
0
0
0
0
0
0
0
0
0
0
0
0
0
0
0
0
0
6.64891019e-09
2.686940274e-10
4.517541532e-12
2.891093571e-14
1.709809664e-14
0
0
0
0
0
0
0
0
0
0
0
0
0
0
0
0
0
0
0
0
0
0
0
0
0
0
0
0
0
0
0
0
0
0
0
0
0
0
0
0
0
0
0
0
0
0
0
0
0
0
0
0
0
0
0
1.265470524e-08
7.704431812e-10
2.713093028e-11
4.072853399e-13
0
0
0
0
0
0
0
0
0
0
0
0
0
0
0
0
0
0
0
0
0
0
0
0
0
0
0
0
0
0
0
0
0
0
0
0
0
0
0
0
0
0
0
0
0
0
0
0
0
0
0
0
0
0
0
0
8.986633698e-08
5.589270602e-09
2.561935341e-10
7.252533269e-12
9.5305409e-14
1.968050477e-14
0
0
0
0
0
0
0
0
0
0
0
0
0
0
0
0
0
0
0
0
0
0
0
0
0
0
0
0
0
0
0
0
0
0
0
0
0
0
0
0
0
0
0
0
0
0
0
0
0
0
0
0
0
0
1.837467265e-07
1.343391388e-08
8.244891704e-10
3.698954165e-11
9.996203393e-13
1.206095266e-14
9.766849275e-15
0
0
0
0
0
0
0
0
0
0
0
0
0
0
0
0
0
0
0
0
0
0
0
0
0
0
0
0
0
0
0
0
0
0
0
0
0
0
0
0
0
0
0
0
0
0
0
0
0
0
0
0
0
2.576938487e-07
2.562998508e-08
1.964089712e-09
1.388935453e-10
5.962649898e-12
1.238077032e-13
3.060563037e-14
1.143900489e-15
0
0
0
0
0
0
0
0
0
0
0
0
0
0
0
0
0
0
0
0
0
0
0
0
0
0
0
0
0
0
0
0
0
0
0
0
0
0
0
0
0
0
0
0
0
0
0
0
0
0
0
0
2.298128619e-07
2.451635898e-08
2.319045259e-09
3.424206173e-10
2.242480786e-11
7.137233675e-13
9.150082596e-15
5.755816264e-15
0
0
0
0
0
0
0
0
0
0
0
0
0
0
0
0
0
0
0
0
0
0
0
0
0
0
0
0
0
0
0
0
0
0
0
0
0
0
0
0
0
0
0
0
0
0
0
0
0
0
0
0
3.943743781e-07
4.831556602e-08
4.607806978e-09
8.489453257e-10
7.680259002e-11
3.231273e-12
5.919234783e-14
1.508899589e-14
0
0
0
0
0
0
0
0
0
0
0
0
0
0
0
0
0
0
0
0
0
0
0
0
0
0
0
0
0
0
0
0
0
0
0
0
0
0
0
0
0
0
0
0
0
0
0
0
0
0
0
0
9.908558943e-07
1.338550655e-07
1.098909999e-08
1.656248825e-09
2.249049277e-10
1.183168167e-11
2.974678223e-13
5.281691448e-14
1.731241381e-15
0
0
0
0
0
0
0
0
0
0
0
0
0
0
0
0
0
0
0
0
0
0
0
0
0
0
0
0
0
0
0
0
0
0
0
0
0
0
0
0
0
0
0
0
0
0
0
0
0
0
0
1.354850209e-06
2.1649906e-07
2.607711667e-08
3.363365208e-09
6.071562947e-10
3.548306604e-11
1.105662803e-12
2.14855409e-14
8.57508052e-15
0
0
0
0
0
0
0
0
0
0
0
0
0
0
0
0
0
0
0
0
0
0
0
0
0
0
0
0
0
0
0
0
0
0
0
0
0
0
0
0
0
0
0
0
0
0
0
0
0
0
0
1.630604924e-06
2.728350483e-07
3.81728093e-08
4.932914659e-09
1.022878607e-09
6.205306376e-11
2.232860019e-12
3.654076133e-14
9.581410597e-15
0
0
0
0
0
0
0
0
0
0
0
0
0
0
0
0
0
0
0
0
0
0
0
0
0
0
0
0
0
0
0
0
0
0
0
0
0
0
0
0
0
0
0
0
0
0
0
0
0
0
0
1.781020564e-06
3.140143779e-07
4.976398261e-08
6.9335037e-09
1.001382692e-09
5.971055322e-11
2.39459638e-12
9.341464695e-14
8.981235493e-15
0
0
0
0
0
0
0
0
0
0
0
0
0
0
0
0
0
0
0
0
0
0
0
0
0
0
0
0
0
0
0
0
0
0
0
0
0
0
0
0
0
0
0
0
0
0
0
0
0
0
0
1.863839407e-06
3.358170452e-07
5.116585419e-08
1.575136786e-08
1.213616385e-09
6.310363165e-11
2.607500232e-12
8.784997412e-14
4.000108567e-15
0
0
0
0
0
0
0
0
0
0
0
0
0
0
0
0
0
0
0
0
0
0
0
0
0
0
0
0
0
0
0
0
0
0
0
0
0
0
0
0
0
0
0
0
0
0
0
0
0
0
0
1.64930456e-06
3.096247365e-07
3.838540383e-08
4.46098344e-09
3.104622427e-10
1.730676359e-11
8.239999579e-13
1.068776804e-13
9.773980966e-15
0
0
0
0
0
0
0
0
0
0
0
0
0
0
0
0
0
0
0
0
0
0
0
0
0
0
0
0
0
0
0
0
0
0
0
0
0
0
0
0
0
0
0
0
0
0
0
0
0
0
0
1.263948681e-06
2.763791946e-07
4.467422231e-08
3.949901433e-09
2.530473449e-10
1.36429156e-11
6.553740536e-13
5.91009679e-14
8.688936155e-15
0
0
0
0
0
0
0
0
0
0
0
0
0
0
0
0
0
0
0
0
0
0
0
0
0
0
0
0
0
0
0
0
0
0
0
0
0
0
0
0
0
0
0
0
0
0
0
0
0
0
0
2.557331857e-07
5.822424731e-08
8.427656669e-09
8.453272637e-10
6.731100929e-11
4.619217904e-12
3.456705596e-13
2.010189953e-14
2.87773336e-15
0
0
0
0
0
0
0
0
0
0
0
0
0
0
0
0
0
0
0
0
0
0
0
0
0
0
0
0
0
0
0
0
0
0
0
0
0
0
0
0
0
0
0
0
0
0
0
0
0
0
0
3.007350913e-08
7.181646625e-09
1.156524933e-09
1.404148265e-10
1.393895291e-11
1.162116919e-12
1.357243963e-14
2.80975044e-15
2.288033103e-16
0
0
0
0
0
0
0
0
0
0
0
0
0
0
0
0
0
0
0
0
0
0
0
0
0
0
0
0
0
0
0
0
0
0
0
0
0
0
0
0
0
0
0
0
0
0
0
0
0
0
0
3.00782898e-09
7.882852707e-10
1.465598288e-10
2.116941902e-11
2.491271423e-12
2.463186639e-13
3.641781529e-14
2.440874988e-15
1.477084061e-16
2.184984577e-18
0
0
0
0
0
0
0
0
0
0
0
0
0
0
0
0
0
0
0
0
0
0
0
0
0
0
0
0
0
0
0
0
0
0
0
0
0
0
0
0
0
0
0
0
0
0
0
0
0
0
2.866259731e-10
8.355199458e-11
1.772182663e-11
2.936855523e-12
3.950293952e-13
4.33713552e-14
0
7.010144632e-17
7.101509011e-17
1.99808631e-17
0
0
0
0
0
0
0
0
0
0
0
0
0
0
0
0
0
0
0
0
0
0
0
0
0
0
0
0
0
0
0
0
0
0
0
0
0
0
0
0
0
0
0
0
0
0
0
0
0
0
2.67516134e-11
8.544035335e-12
1.811582734e-12
3.36836678e-13
5.062484448e-14
8.476839595e-15
1.370804308e-15
2.212571065e-16
4.120824561e-17
2.260271417e-17
3.096194274e-17
0
0
9.985526477e-19
0
0
0
0
0
0
0
0
0
0
0
0
0
0
0
0
0
0
0
0
0
0
0
0
0
0
0
0
0
0
0
0
0
0
0
0
0
0
0
0
0
0
0
0
0
0
2.150891994e-12
7.604066221e-13
2.044674897e-13
5.642106451e-14
9.173370558e-15
4.87344226e-16
1.241151628e-16
0
0
2.040900945e-17
7.128696315e-18
7.691341731e-18
0
0
0
0
0
0
0
0
0
0
0
0
0
0
0
0
0
0
0
0
0
0
0
0
0
0
0
0
0
0
0
0
0
0
0
0
0
0
0
0
0
0
0
0
0
0
0
0
2.54085902e-13
8.610039487e-14
2.444094885e-14
0
2.152991362e-16
0
4.093673316e-18
0
0
2.032082566e-17
2.385754014e-17
8.286431265e-18
6.147721284e-18
0
0
0
0
0
0
0
0
0
0
0
0
0
0
0
0
0
0
0
0
0
0
0
0
0
0
0
0
0
0
0
0
0
0
0
0
0
0
0
0
0
0
0
0
0
0
0
3.22869891e-14
1.505879135e-14
4.14945244e-15
8.105788216e-16
4.600257844e-16
1.348272334e-16
7.522977306e-17
0
0
5.813784728e-18
6.792605966e-18
1.023642378e-17
1.350739798e-17
0
0
0
0
0
0
0
0
0
0
0
0
0
0
0
0
0
0
0
0
0
0
0
0
0
0
0
0
0
0
0
0
0
0
0
0
0
0
0
0
0
0
0
0
0
0
0
3.435308693e-15
5.903564218e-16
7.401673518e-16
3.560992161e-16
2.580865508e-16
1.01597475e-16
6.135765873e-17
1.668742277e-17
0
0
0
0
7.639824701e-18
1.08734978e-17
0
0
0
0
0
0
0
0
0
0
0
0
0
0
0
0
0
0
0
0
0
0
0
0
0
0
0
0
0
0
0
0
0
0
0
0
0
0
0
0
0
0
0
0
0
0
0
3.889399639e-16
2.616643558e-16
8.079622264e-17
6.874655787e-17
4.362515397e-17
4.065198521e-17
2.559024232e-17
0
0
0
5.820232177e-18
2.204232321e-17
8.251646817e-18
6.489646083e-18
0
0
0
0
0
0
0
0
0
0
0
0
0
0
0
0
0
0
0
0
0
0
0
0
0
0
0
0
0
0
0
0
0
0
0
0
0
0
0
0
0
0
0
0
0
2.87119135e-16
1.964890401e-16
1.069433087e-16
4.13692472e-17
5.464534972e-17
3.880368493e-17
3.375774155e-17
2.882533599e-17
2.546175524e-17
0
1.725552184e-17
4.214318419e-17
9.71979875e-18
6.400837596e-18
0
0
0
0
0
0
0
0
0
0
0
0
0
0
0
0
0
0
0
0
0
0
0
0
0
0
0
0
0
0
0
0
0
0
0
0
0
0
0
0
0
0
0
0
0
0
1.115378874e-16
8.664642747e-17
5.255080241e-17
5.57322249e-17
4.577870114e-17
3.867240685e-17
3.950481104e-17
3.103410978e-17
3.064421634e-17
4.444423014e-17
2.612199152e-17
2.261164926e-17
6.471145391e-18
0
0
0
0
0
0
0
0
0
0
0
0
0
0
0
0
0
0
0
0
0
0
0
0
0
0
0
0
0
0
0
0
0
0
0
0
0
0
0
0
0
0
0
0
0
0
0
6.612676608e-17
5.536082812e-17
4.65200275e-17
4.176143482e-17
4.030860663e-17
3.684276754e-17
3.920736855e-17
3.382830506e-17
2.649569056e-17
2.808343252e-17
1.740354909e-17
1.032758745e-17
9.167722042e-18
3.621222289e-19
0
0
0
0
0
0
0
0
0
0
0
0
0
0
0
0
0
0
0
0
0
0
0
0
0
0
0
0
0
0
0
0
0
0
0
0
0
0
0
0
0
0
0
0
0
0
4.589139147e-17
4.244430021e-17
4.100426079e-17
3.845004518e-17
3.836532091e-17
3.564171042e-17
3.119138025e-17
2.990384818e-17
1.895212733e-17
1.035213246e-17
6.652475714e-18
4.200658664e-18
5.436571658e-18
0
0
0
0
0
0
0
0
0
0
0
0
0
0
0
0
0
0
0
0
0
0
0
0
0
0
0
0
0
0
0
0
0
0
0
0
0
0
0
0
0
0
0
0
0
0
0
3.854014179e-17
3.888917762e-17
3.544071056e-17
3.098849052e-17
3.231116594e-17
2.867171272e-17
2.464114868e-17
2.447226655e-17
1.494658748e-17
6.195856883e-18
5.982882668e-18
3.147530683e-18
4.163286148e-18
6.649536424e-18
0
0
0
0
0
0
0
0
0
0
0
0
0
0
0
0
0
0
0
0
0
0
0
0
0
0
0
0
0
0
0
0
0
0
0
0
0
0
0
0
0
0
0
0
0
0
3.423940721e-17
3.308926374e-17
2.906375707e-17
2.193977017e-17
2.132445543e-17
1.633145432e-17
1.422237363e-17
1.652970383e-17
9.08982238e-18
3.337307486e-18
5.613273746e-18
3.171905963e-18
5.495559044e-18
7.205276131e-18
0
0
0
0
0
0
0
0
0
0
0
0
0
0
0
0
0
0
0
0
0
0
0
0
0
0
0
0
0
0
0
0
0
0
0
0
0
0
0
0
0
0
0
0
0
0
2.199964506e-17
2.154667751e-17
1.521536917e-17
9.06453424e-18
6.61769019e-18
5.899524886e-18
6.075483864e-18
1.010913069e-17
4.06220596e-18
1.849179392e-19
2.264002643e-18
8.168164207e-19
1.462378652e-18
2.6354871e-18
0
0
0
0
0
0
0
0
0
0
0
0
0
0
0
0
0
0
0
0
0
0
0
0
0
0
0
0
0
0
0
0
0
0
0
0
0
0
0
0
0
0
0
0
0
0
1.185355527e-17
1.188277242e-17
6.325565437e-18
1.551576368e-18
3.61889133e-19
9.579755395e-19
2.159651459e-18
7.090907131e-18
2.205236282e-18
0
5.195463403e-19
0
0
2.243934449e-18
7.987530746e-18
2.91065209e-18
0
0
3.044222432e-19
0
0
0
0
0
0
0
0
0
0
0
0
0
0
0
0
0
0
0
0
0
0
0
0
0
0
0
0
0
0
0
0
0
0
0
0
0
0
0
0
0
5.015346239e-18
3.306788993e-18
1.067428247e-18
0
2.895191143e-19
0
0
2.55509128e-19
0
0
2.341157756e-19
0
9.770241399e-20
2.16638641e-18
6.608136384e-18
0
0
0
0
0
0
0
0
0
0
0
0
0
0
0
0
0
0
0
0
0
0
0
0
0
0
0
0
0
0
0
0
0
0
0
0
0
0
0
0
0
0
0
0
0
8.103006495e-19
2.153147201e-19
0
0
0
0
0
6.115924776e-20
0
0
1.377914854e-19
0
0
4.065908604e-19
0
0
0
0
0
0
0
0
0
0
0
0
0
0
0
0
0
0
0
0
0
0
0
0
0
0
0
0
0
0
0
0
0
0
0
0
0
0
0
0
0
0
0
0
0
0
0
0
0
1.615217368e-19
8.173028718e-21
0
0
7.236260298e-20
0
0
8.330361616e-20
0
0
3.537353419e-19
0
7.323476603e-19
1.134378634e-18
0
0
6.545966125e-18
0
0
0
0
0
0
0
0
0
0
0
0
0
0
0
0
0
0
0
0
0
0
0
0
0
0
0
0
0
0
0
0
0
0
0
0
0
0
0
0
0
0
0
0
0
0
0
6.350748976e-20
0
0
7.678351709e-20
0
0
3.48414786e-19
0
1.024546158e-18
2.972700498e-18
3.928122749e-18
0
3.318859735e-18
0
0
0
0
0
0
0
0
0
0
0
0
0
0
0
0
0
0
0
0
0
0
0
0
0
0
0
0
0
0
0
0
0
0
0
0
0
0
0
0
0
0
1.396790301e-19
3.97431703e-21
0
0
4.606601385e-21
6.046334535e-20
0
0
0
0
0
3.395310277e-19
0
4.19243436e-19
0
0
0
0
7.275892011e-19
5.110516107e-18
0
0
0
0
0
0
0
0
0
0
0
0
0
0
0
0
0
0
0
0
0
0
0
0
0
0
0
0
0
0
0
0
0
0
0
0
0
0
0
1.370708635e-19
1.623246202e-20
0
0
0
6.302073697e-20
0
0
0
0
0
0
6.045855603e-20
0
2.570959082e-21
0
1.314979941e-18
0
0
7.969748121e-18
7.855371478e-18
0
0
0
0
0
0
0
0
0
0
0
0
0
0
0
0
0
0
0
0
0
0
0
0
0
0
0
0
0
0
0
0
0
0
0
0
0
0
1.301279155e-19
1.8968578e-20
0
0
0
0
6.993778574e-20
0
0
0
0
0
0
1.567074875e-19
0
0
1.266167917e-20
6.186574692e-18
2.811855995e-17
4.586151363e-18
8.281129551e-18
7.595237642e-18
8.230662302e-19
0
0
0
0
0
0
0
0
0
0
0
0
0
0
0
0
0
0
0
0
0
0
0
0
0
0
0
0
0
0
0
0
0
0
0
0
0
0
1.073705656e-20
0
0
0
0
0
0
0
0
0
0
0
9.680916687e-20
3.611255131e-19
0
0
2.67458485e-18
1.89704609e-17
2.383672907e-18
4.301571949e-19
6.957928058e-18
0
0
0
0
0
0
0
0
0
0
0
0
0
0
0
0
0
0
0
0
0
0
0
0
0
0
0
0
0
0
0
0
0
0
0
0
0
0
1.228879228e-20
0
0
0
0
6.78668626e-20
0
0
0
0
0
0
0
9.732820066e-20
3.816214839e-19
0
0
0
0
0
6.403427645e-20
6.942278945e-18
0
0
0
0
0
0
0
0
0
0
0
0
0
0
0
0
0
0
0
0
0
0
0
0
0
0
0
0
0
0
0
0
0
0
0
0
0
0
0
0
0
0
0
0
0
0
0
0
0
0
0
1.124069064e-19
3.8423955e-19
0
0
0
4.738716858e-19
1.334519907e-17
1.993689855e-18
7.958266545e-18
7.569693899e-18
7.379289031e-19
0
0
0
0
0
0
0
0
0
0
0
0
0
0
0
0
0
0
0
0
0
0
0
0
0
0
0
0
0
0
0
0
0
0
0
0
0
0
0
0
0
0
0
0
0
0
0
0
0
1.196061515e-19
3.844638137e-19
0
0
0
3.851559998e-18
2.629427226e-17
5.484930682e-18
1.221634774e-18
7.046260061e-18
0
0
0
0
0
0
0
0
0
0
0
0
0
0
0
0
0
0
0
0
0
0
0
0
0
0
0
0
0
0
0
0
0
0
0
0
0
0
0
0
0
0
0
0
0
0
3.019510485e-21
0
0
0
1.235026682e-19
3.832890996e-19
0
0
0
1.010021849e-18
7.866917783e-18
2.048565764e-18
2.903154243e-19
7.095769923e-18
3.492650521e-18
0
0
0
0
0
0
0
0
0
0
0
0
0
0
0
0
0
0
0
0
0
0
0
0
0
0
0
0
0
0
0
0
0
0
0
0
0
0
0
0
0
0
0
0
2.885018939e-22
3.462472421e-21
3.606303964e-21
0
1.853936003e-21
1.25974632e-19
3.812327074e-19
9.400881153e-21
0
0
0
0
0
7.830304019e-20
7.409374667e-18
7.485700022e-18
7.749962008e-19
0
0
0
0
0
0
0
0
0
0
0
0
0
0
0
0
0
0
0
0
0
0
0
0
0
0
0
0
0
0
0
0
0
0
0
0
0
0
0
0
0
0
0
0
3.76039584e-21
4.538293021e-21
0
3.315308731e-21
1.372353176e-19
3.983098796e-19
1.647325579e-20
0
0
0
0
0
0
1.321838876e-19
6.8957934e-18
0
0
0
0
0
0
0
0
0
0
0
0
0
0
0
0
0
0
0
0
0
0
0
0
0
0
0
0
0
0
0
0
0
0
0
0
0
0
0
0
0
0
0
3.972991613e-23
3.756682485e-21
3.919759926e-21
3.671650729e-21
0
1.250526737e-20
1.519705411e-19
4.742712612e-19
2.256934678e-20
0
0
0
0
1.709645015e-18
0
8.223738874e-20
7.567892575e-18
7.378782877e-18
3.416554241e-18
0
0
0
0
0
0
0
0
0
0
0
0
0
0
0
0
0
0
0
0
0
0
0
0
0
0
0
0
0
0
0
0
0
0
0
0
0
0
0
0
5.652036199e-23
2.057756498e-22
3.879741388e-21
3.85295603e-21
3.621795171e-21
0
1.823185307e-21
7.927030946e-20
1.08944618e-19
2.194382327e-20
2.433002212e-22
0
0
0
5.199839104e-20
0
9.12732039e-20
7.69483947e-18
8.233929373e-18
1.561667881e-18
0
0
0
0
0
0
0
0
0
0
0
0
0
0
0
0
0
0
0
0
0
0
0
0
0
0
0
0
0
0
0
0
0
0
0
0
0
0
0
9.341574609e-22
6.807755704e-22
4.58250338e-21
4.64160642e-21
3.791527402e-21
3.706721227e-22
0
0
2.148987476e-20
1.088853292e-19
1.050466816e-20
6.343554243e-22
0
0
0
0
0
0
2.809037289e-18
7.45808735e-18
0
0
0
0
0
0
0
0
0
0
0
0
0
0
0
0
0
0
0
0
0
0
0
0
0
0
0
0
0
0
0
0
0
0
0
0
0
0
0
1.008266047e-21
9.133555793e-22
1.378523797e-21
5.689737322e-21
5.939156053e-21
4.720226944e-21
9.252629073e-22
0
0
0
0
0
1.818966242e-21
0
0
0
0
0
0
1.58175721e-19
8.082483646e-18
8.829876458e-18
5.831699049e-18
3.431499022e-19
0
0
0
0
0
0
0
0
0
0
0
0
0
0
0
0
0
0
0
0
0
0
0
0
0
0
0
0
0
0
0
0
0
0
0
1.377862274e-21
1.404422446e-21
1.769068291e-21
6.228124122e-21
6.822974526e-21
5.648280018e-21
8.029472484e-22
0
0
0
0
0
0
2.135716636e-21
0
0
0
0
0
0
9.578299032e-20
7.924893513e-18
8.860969318e-18
4.443345239e-18
1.022308543e-19
0
0
0
0
0
0
0
0
0
0
0
0
0
0
0
0
0
0
0
0
0
0
0
0
0
0
0
0
0
0
0
0
0
1.322454089e-21
1.571759136e-21
2.027004098e-21
2.69472441e-21
7.199075047e-21
8.20533973e-21
8.181778376e-21
6.933800302e-21
1.75387215e-21
0
0
0
0
0
0
1.688988899e-21
0
0
0
0
0
0
1.363124071e-19
8.284843482e-18
8.221056281e-18
1.542786126e-18
0
0
0
0
0
0
0
0
0
0
0
0
0
0
0
0
0
0
0
0
0
0
0
0
0
0
0
0
0
0
0
0
0
9.843486233e-22
9.693013967e-22
1.012558578e-21
1.22448544e-21
2.216430438e-21
6.774602342e-21
7.450552183e-21
6.68560525e-21
2.382030641e-21
2.501433771e-21
0
0
0
0
3.602904582e-21
2.84279681e-22
3.121493229e-21
0
0
0
0
0
0
0
1.610382559e-18
8.166655508e-18
7.56500788e-18
4.888792165e-18
0
0
0
0
0
0
0
0
0
0
0
0
0
0
0
0
0
0
0
0
0
0
0
0
0
0
0
0
0
0
0
0
2.793864695e-21
2.910302922e-21
3.208270849e-21
7.305359787e-21
8.090045071e-21
8.147892972e-21
7.175157453e-21
2.875219885e-21
2.019654488e-21
0
0
0
0
0
8.212964934e-22
5.184521683e-22
3.285775828e-21
0
0
0
0
0
0
0
1.366680071e-19
8.223092303e-18
9.396255516e-18
8.282522166e-18
0
0
0
0
0
0
0
0
0
0
0
0
0
0
0
0
0
0
0
0
0
0
0
0
0
0
0
0
0
0
0
0
5.186142801e-21
5.894521237e-21
9.705773438e-21
1.029403359e-20
1.00016184e-20
8.674828892e-21
4.127354682e-21
3.59264554e-21
3.566243137e-21
0
0
4.059155466e-20
1.572152623e-19
2.908240449e-19
4.547192757e-20
5.262618275e-20
2.550881156e-20
0
0
0
0
0
0
0
9.562907728e-20
7.997497369e-18
9.468818708e-18
8.761089432e-18
8.86003915e-21
0
0
0
0
0
0
0
0
0
0
0
0
0
0
0
0
0
0
0
0
0
0
0
0
0
0
0
0
0
0
0
1.226875556e-20
1.299567582e-20
1.313412565e-20
1.253195533e-20
1.106296936e-20
6.598585277e-21
6.33470104e-21
6.232888966e-21
9.865721397e-23
0
0
0
1.621720473e-21
1.837920629e-20
2.090982645e-20
2.123774952e-20
1.268858564e-20
0
0
0
0
0
0
0
9.648073569e-20
7.884859566e-18
9.303847202e-18
8.602482734e-18
0
0
0
0
0
0
0
0
0
0
0
0
0
0
0
0
0
0
0
0
0
0
0
0
0
0
0
0
0
0
0
0
1.465625677e-20
1.441462343e-20
1.342228148e-20
1.165920068e-20
7.11070451e-21
6.981318298e-21
7.690835833e-21
4.693295357e-21
0
0
0
0
0
0
6.535991179e-21
1.170484264e-20
6.899331128e-21
0
0
0
0
3.139348904e-22
0
0
1.041968118e-19
7.703067508e-18
9.343284847e-18
9.187585427e-18
6.341729971e-18
2.690249115e-20
0
0
0
0
0
0
0
0
0
0
0
0
0
0
0
0
0
0
0
0
0
0
0
0
0
0
0
0
0
0
1.41363687e-20
1.228281446e-20
9.954052757e-21
5.328125218e-21
5.447022796e-21
6.682100534e-21
4.368088403e-21
0
0
0
0
0
0
5.264953819e-21
5.057264093e-21
1.223826667e-20
7.534534288e-21
0
0
0
0
0
0
0
0
1.544126594e-18
8.796135921e-18
9.589932694e-18
8.406156791e-18
5.418298939e-20
0
0
0
0
0
0
0
0
0
0
0
0
0
0
0
0
0
0
0
0
0
0
0
0
0
0
0
0
0
0
1.044590392e-20
5.559680503e-21
4.486137595e-21
5.123357399e-21
6.993546492e-21
4.802990462e-21
0
0
0
0
0
0
8.206923422e-21
1.372024137e-20
1.736846482e-20
1.389044794e-20
5.913617331e-21
0
0
0
0
7.353059836e-22
0
0
0
1.351290215e-19
8.234709369e-18
9.172394347e-18
5.895213708e-18
2.647367388e-20
0
0
0
0
0
0
0
0
0
0
0
0
0
0
0
0
0
0
0
0
0
0
0
0
0
0
0
0
0
0
4.841058674e-21
6.006319514e-21
7.003158358e-21
7.978318552e-21
5.040652052e-21
0
0
0
0
0
0
0
7.333153761e-21
1.479066013e-20
1.579062272e-20
1.210253382e-20
5.435395231e-21
0
0
0
0
3.017994995e-21
0
0
0
1.02559237e-19
8.085358979e-18
8.844267823e-18
4.580633222e-18
1.672141129e-19
0
0
0
0
0
0
0
0
0
0
0
0
0
0
0
0
0
0
0
0
0
0
0
0
0
0
0
0
0
0
1.501441121e-20
1.449285695e-20
1.145168959e-20
5.480265904e-21
0
0
0
0
0
0
0
1.225675005e-20
2.031281693e-20
2.289389798e-20
2.048277705e-20
1.370667322e-20
5.673672991e-21
0
0
0
0
8.500951096e-22
0
0
0
9.548582592e-20
7.927510381e-18
9.141755058e-18
8.872282813e-18
4.485212508e-18
0
0
0
0
0
0
0
0
0
0
0
0
0
0
0
0
0
0
0
0
0
0
0
0
0
0
0
0
0
0
1.503051442e-20
7.869407836e-21
1.630037024e-21
0
0
0
0
0
0
0
1.411454246e-21
5.215152111e-21
1.739988714e-20
2.111997956e-20
1.944490675e-20
1.252006242e-20
0
0
0
0
0
3.26742965e-21
0
0
0
9.808812377e-20
7.861798598e-18
9.158723924e-18
9.223571052e-18
8.005117081e-18
4.357047216e-20
0
0
0
0
0
0
0
0
0
0
0
0
0
0
0
0
0
0
0
0
0
0
0
0
0
0
0
0
0
1.560779164e-21
0
0
0
0
0
0
0
0
1.269258376e-21
7.504673506e-21
1.838374974e-20
2.377389628e-20
2.55025326e-20
2.207745173e-20
1.260709754e-20
0
0
0
0
0
2.763256449e-21
0
0
0
1.043664449e-19
7.709254784e-18
9.189019688e-18
9.577968122e-18
8.567501704e-18
4.627916484e-20
0
0
0
0
0
0
0
0
0
0
0
0
0
0
0
0
0
0
0
0
0
0
0
0
0
0
0
0
0
0
0
0
0
0
0
0
0
0
1.139916435e-20
1.280447844e-20
2.351700206e-20
2.860093828e-20
2.94240234e-20
2.465225486e-20
1.348208263e-20
0
0
0
0