/*--------------------------------*- C++ -*----------------------------------*\
  =========                 |
  \\      /  F ield         | OpenFOAM: The Open Source CFD Toolbox
   \\    /   O peration     | Website:  https://openfoam.org
    \\  /    A nd           | Version:  10
     \\/     M anipulation  |
\*---------------------------------------------------------------------------*/
FoamFile
{
    format      ascii;
    class       volScalarField;
    location    "0.0250188088";
    object      C2H4_0;
}
// * * * * * * * * * * * * * * * * * * * * * * * * * * * * * * * * * * * * * //

dimensions      [0 0 0 0 0 0 0];

internalField   nonuniform List<scalar> 
5170
(
2.612347652e-11
2.607694073e-11
2.577218507e-11
2.363321083e-11
1.835608247e-12
5.247100007e-11
5.232567405e-11
5.167672374e-11
4.837515997e-11
2.980013659e-11
7.875302684e-11
7.85126912e-11
7.756652309e-11
7.362382187e-11
5.813079124e-11
1.04736623e-10
1.044133817e-10
1.032481071e-10
9.905932803e-11
8.671580144e-11
1.303745863e-10
1.299832952e-10
1.286833974e-10
1.24561339e-10
1.153484925e-10
1.556666044e-10
1.552331171e-10
1.538853192e-10
1.501086839e-10
1.439927156e-10
1.806503018e-10
1.80196228e-10
1.788834475e-10
1.757250431e-10
1.726647539e-10
2.053858502e-10
2.049409905e-10
2.037407288e-10
2.014268242e-10
2.013982152e-10
2.299231836e-10
2.295130065e-10
2.28510152e-10
2.272545126e-10
2.302288242e-10
2.543095804e-10
2.539520179e-10
2.532037661e-10
2.532475224e-10
2.5919041e-10
2.785700811e-10
2.782842365e-10
2.778410603e-10
2.79421682e-10
2.882871983e-10
3.027073534e-10
3.02517451e-10
3.02484409e-10
3.057703194e-10
3.174897975e-10
3.267282643e-10
3.266587294e-10
3.271559003e-10
3.322924134e-10
3.467660129e-10
3.506376684e-10
3.507139634e-10
3.518487401e-10
3.589809205e-10
3.760807886e-10
3.744353266e-10
3.746882939e-10
3.765617e-10
3.858142419e-10
4.053904258e-10
3.981131966e-10
3.985776655e-10
4.01327201e-10
4.127884665e-10
4.346151863e-10
4.216691484e-10
4.22384073e-10
4.261147314e-10
4.398425498e-10
4.637694617e-10
4.451042537e-10
4.461152388e-10
4.509946432e-10
4.670199916e-10
4.928122435e-10
4.684657057e-10
4.69965048e-10
4.772260485e-10
5.033124434e-10
5.581698514e-10
5.053319821e-10
5.697852103e-10
1.110730377e-09
4.832024176e-09
2.144451675e-08
1.183689587e-21
2.426501775e-23
0
0
0
7.278915213e-22
0
0
0
0
1.007503557e-22
0
4.525835225e-22
0
0
0
0
3.456011822e-22
0
0
0
0
0
0
0
0
0
0
6.521599871e-16
5.308987209e-15
0
4.256770477e-17
0
0
7.104780165e-16
5.776227872e-16
0
4.414588172e-17
0
0
6.220555869e-14
1.268975979e-14
0
1.456722995e-15
0
0
0
0
0
0
0
0
0
0
0
0
0
0
0
0
0
0
0
0
0
0
0
0
0
0
0
0
0
0
0
0
0
0
0
0
0
0
0
0
0
0
0
0
0
0
1.202876569e-09
0
0
0
0
3.514734566e-07
2.392219004e-08
6.014204526e-09
3.50467802e-10
1.003582912e-11
1.035407272e-09
4.570952663e-09
6.291255878e-08
9.284536456e-07
1.238006721e-05
5.320525074e-09
3.526699801e-08
4.668332457e-07
5.628507992e-06
5.437159005e-05
2.360912494e-08
1.561679144e-07
1.787475552e-06
1.706842276e-05
0.0001149642101
8.057177169e-08
4.923488332e-07
4.797387671e-06
3.634571788e-05
0.0001752115227
2.29954985e-07
1.29214613e-06
1.066080355e-05
6.283810985e-05
0.0002256737361
5.766415824e-07
2.975090322e-06
2.050235825e-05
9.488744885e-05
0.0002741437057
1.314636413e-06
6.186202821e-06
3.53834597e-05
0.0001325334779
0.0003299427199
2.787268776e-06
1.185276118e-05
5.631127696e-05
0.0001760147904
0.0003914556891
5.615112729e-06
2.134655265e-05
8.395950673e-05
0.0002234717861
0.0004504206884
1.0834294e-05
3.621171659e-05
0.0001181604357
0.0002730572966
0.0005038799868
2.015839306e-05
5.82484992e-05
0.0001583794592
0.0003236558681
0.0005533539495
3.684452715e-05
8.867771472e-05
0.0002033696977
0.0003755348082
0.0006026584375
6.519644795e-05
0.0001280133741
0.0002528484354
0.0004288978409
0.0006523779358
0.0001054276895
0.0001756268069
0.0003064919248
0.0004837795879
0.0007025543292
0.0001622686972
0.0002339260489
0.0003660373296
0.0005418358144
0.0007551900101
0.000233164093
0.0003025757196
0.0004326457212
0.0006051731684
0.0008126663717
0.000319411584
0.0003848940756
0.0005102147503
0.000677116633
0.0008773879611
0.000423810414
0.0004834827305
0.0006010501787
0.0007602436043
0.0009526432992
0.0005395914455
0.0005938767217
0.0007040191245
0.0008563466652
0.00104232405
0.0006649003958
0.000713832604
0.0008135525566
0.0009506667244
0.001115289569
0.0007893205643
0.0008274035064
0.0009032689445
0.001002713501
0.001113468222
0.0008721973188
0.0008916540383
0.0009298179459
0.0009774965368
0.001025890451
0.0008518275692
0.000857581387
0.0008680175731
0.0008789906211
0.0008862442974
0.000747686803
0.0007470216756
0.0007444023058
0.0007383630512
0.0007274047904
0.0006081291981
0.00060545338
0.0005989109893
0.0005882513826
0.0005733412592
0.0004697719882
0.0004670692178
0.0004608185763
0.0004510819331
0.0004380140859
0.0003589716327
0.0003568247902
0.0003518483835
0.0003441863662
0.0003340671425
0.0002716239334
0.0002700223446
0.0002663313401
0.0002606847326
0.0002532801646
0.0002041025265
0.0002029508442
0.0002003059909
0.0001962707184
0.0001909925519
0.0001520339971
0.0001512258741
0.0001493716731
0.0001465438505
0.0001428461806
0.0001118048369
0.0001112503737
0.0001099762912
0.0001080306581
0.0001054840787
8.075407501e-05
8.038260879e-05
7.952568026e-05
7.8213633e-05
7.649341752e-05
5.69536328e-05
5.671133868e-05
5.614902473e-05
5.528486239e-05
5.414947138e-05
3.898435845e-05
3.883133089e-05
3.847320048e-05
3.792025965e-05
3.71921007e-05
2.575289093e-05
2.565993303e-05
2.544004745e-05
2.509862625e-05
2.464791257e-05
1.634286149e-05
1.628895673e-05
1.615965451e-05
1.595750809e-05
1.568996045e-05
9.928593072e-06
9.898936734e-06
9.826534667e-06
9.71240383e-06
9.560915304e-06
5.759631555e-06
5.744260322e-06
5.705855271e-06
5.644695975e-06
5.563256417e-06
3.184595977e-06
3.177139577e-06
3.157938479e-06
3.126970806e-06
3.085578553e-06
1.676495821e-06
1.673141883e-06
1.664142201e-06
1.649390304e-06
1.629582018e-06
8.403230422e-07
8.389393975e-07
8.350071016e-07
8.284239839e-07
8.195340173e-07
4.018012411e-07
4.012868696e-07
3.996943129e-07
3.969517733e-07
3.932211454e-07
1.842914592e-07
1.841234353e-07
1.835279545e-07
1.824621671e-07
1.809985637e-07
8.214193889e-08
8.209540323e-08
8.188860046e-08
8.149882453e-08
8.095701327e-08
3.658332132e-08
3.657237779e-08
3.650263149e-08
3.636323194e-08
3.616683874e-08
1.715575612e-08
1.715227813e-08
1.712564016e-08
1.707117989e-08
1.699391093e-08
9.117990263e-09
9.114831516e-09
9.100346656e-09
9.072772996e-09
9.0340864e-09
5.799050877e-09
5.795344383e-09
5.784286046e-09
5.765354689e-09
5.739372258e-09
4.349134193e-09
4.34523301e-09
4.335532059e-09
4.319987173e-09
4.298976259e-09
3.624606671e-09
3.620873666e-09
3.612207215e-09
3.598732385e-09
3.580665391e-09
3.185647572e-09
3.182242529e-09
3.174591125e-09
3.162881614e-09
3.147273132e-09
2.878584466e-09
2.87559047e-09
2.868892166e-09
2.858653294e-09
2.844980378e-09
2.636103042e-09
2.633464115e-09
2.627586137e-09
2.618619338e-09
2.606649195e-09
2.435232567e-09
2.432902624e-09
2.42772586e-09
2.419837959e-09
2.409309599e-09
2.265740283e-09
2.263673055e-09
2.259088449e-09
2.252108508e-09
2.242792315e-09
2.122308952e-09
2.120454991e-09
2.116350391e-09
2.110105616e-09
2.101770013e-09
2.00133456e-09
1.999646028e-09
1.99591483e-09
1.990243781e-09
1.982675072e-09
1.899648707e-09
1.89808359e-09
1.894632472e-09
1.889393166e-09
1.882402868e-09
1.813467287e-09
1.811993003e-09
1.808749038e-09
1.803830192e-09
1.797270361e-09
1.737821218e-09
1.736420358e-09
1.733342913e-09
1.728680786e-09
1.722464577e-09
1.666710412e-09
1.665374517e-09
1.662440179e-09
1.657993784e-09
1.652064761e-09
1.594015435e-09
1.592753472e-09
1.589981155e-09
1.585780706e-09
1.580180245e-09
1.516053612e-09
1.514893811e-09
1.512342592e-09
1.508475005e-09
1.503316703e-09
1.432916071e-09
1.431864547e-09
1.429545798e-09
1.426024622e-09
1.421325473e-09
1.346563505e-09
1.345629402e-09
1.343564604e-09
1.340424532e-09
1.336231614e-09
1.261371908e-09
1.260552812e-09
1.258738715e-09
1.255976964e-09
1.252287911e-09
1.182009957e-09
1.181293823e-09
1.179705187e-09
1.177283265e-09
1.174043955e-09
1.11082313e-09
1.110177322e-09
1.108745198e-09
1.106562925e-09
1.10364559e-09
1.048266518e-09
1.047677648e-09
1.046372567e-09
1.044384072e-09
1.041725141e-09
9.976062653e-10
9.970624679e-10
9.958580356e-10
9.940238254e-10
9.915720588e-10
4.472687279e-05
0.0002033357216
0.0003257734339
0.0003886386932
0.0004225077629
0.0004676010022
0.0005347462876
0.0006048585551
0.0006603749258
0.0007033518663
0.0007422242351
0.0007843810735
0.0008275043104
0.0008709877413
0.000917653396
0.0009696579863
0.00102848288
0.001098167779
0.001183733015
0.001237082593
0.001187873996
0.001054385753
0.0008873676211
0.0007174018165
0.0005617238208
0.0004281239234
0.0003265594189
0.0002478247641
0.0001871168848
0.0001401395285
0.0001036283666
7.524843753e-05
5.33359356e-05
3.667754352e-05
2.433525645e-05
1.550877348e-05
9.461449707e-06
5.511868694e-06
3.060779622e-06
1.618506317e-06
8.150155895e-07
3.915705411e-07
1.804760915e-07
8.082159538e-08
3.613939017e-08
1.698557285e-08
9.024112937e-09
5.726536317e-09
4.285075785e-09
3.567273184e-09
3.135101052e-09
2.834168796e-09
2.59710273e-09
2.400869762e-09
2.235293963e-09
2.09503422e-09
1.97653317e-09
1.876706332e-09
1.791904067e-09
1.717363252e-09
1.647195046e-09
1.575586241e-09
1.499108874e-09
1.417497611e-09
1.332831119e-09
1.24930699e-09
1.171427067e-09
1.101290186e-09
1.039574989e-09
9.895879214e-10
0.0001051855318
1.389812239e-05
6.008592084e-07
2.26294585e-08
1.702938116e-09
0.0005824470434
0.002552289714
0.0001466860706
4.378069436e-06
2.093054894e-07
0.0007785347476
0.002112529602
0.0001986391157
1.036374448e-05
5.630217654e-07
0.0007948156472
0.001559603555
0.0002296251058
1.821359047e-05
1.002523765e-06
0.0007764046418
0.001348754264
0.001168389723
0.0001157731695
8.189373153e-06
0.0008143131994
0.001485819848
0.002173551013
0.0002719269045
2.46987442e-05
0.0009023734873
0.001694673625
0.002688574364
0.0003893985965
4.37104453e-05
0.0009789893652
0.001733937934
0.002533059845
0.0004245187112
5.602460052e-05
0.001016412174
0.001653854775
0.002207560675
0.000664560717
9.945454572e-05
0.001032241661
0.001573540592
0.002033752904
0.001126443117
0.0001831715665
0.00104828061
0.001544569044
0.002018363071
0.001578943821
0.0002819965723
0.001076504302
0.001561635516
0.00207897391
0.001973406083
0.0003826369717
0.00110603205
0.001563154919
0.002032739807
0.002034251901
0.0004561696237
0.001136788538
0.001570417606
0.002020432965
0.002159416396
0.0007040873269
0.001172533754
0.00158911026
0.00202724184
0.002238539931
0.0009605688336
0.001214972034
0.001617102828
0.002042810526
0.002292079616
0.001241144789
0.001263894941
0.00165088668
0.002062501887
0.002328911733
0.001468047763
0.00132383005
0.00169736458
0.002095247401
0.002331543882
0.00142396412
0.00140139186
0.001761104844
0.002117703444
0.002172733224
0.0009589336796
0.00142263089
0.001710397029
0.001965199096
0.001952143519
0.0006167213792
0.001300013424
0.001430892576
0.001482770156
0.001391223437
0.001066360873
0.001098939244
0.001120448069
0.00107818003
0.0009635937764
0.0007857867979
0.0008928338057
0.0008660822964
0.0008006238343
0.000702357516
0.0005839629887
0.000707039185
0.0006681233498
0.0006078403029
0.0005322784548
0.0004496551793
0.0005486406291
0.0005133470532
0.0004653731888
0.0004094554814
0.0003505258603
0.0004167673865
0.0003891779864
0.0003536989684
0.0003136269393
0.0002720376871
0.0003179444729
0.0002975817888
0.0002718729123
0.0002431171732
0.0002133406422
0.0002415816306
0.0002269422092
0.0002085409105
0.0001879690385
0.0001665905883
0.000182713898
0.0001723416985
0.000159260822
0.0001445724405
0.0001292106416
0.0001371106417
0.0001298634888
0.0001206395427
0.000110202781
9.919993929e-05
0.0001016052342
9.662886274e-05
9.020202246e-05
8.285512043e-05
7.503812416e-05
7.394495475e-05
7.060105885e-05
6.619534202e-05
6.109548774e-05
5.561451947e-05
5.253310153e-05
5.03455567e-05
4.738868066e-05
4.391612083e-05
4.014451511e-05
3.621114425e-05
3.482725758e-05
3.289628601e-05
3.05913337e-05
2.806054058e-05
2.40847315e-05
2.324477084e-05
2.202613324e-05
2.054472367e-05
1.889978397e-05
1.538827797e-05
1.490289819e-05
1.416426733e-05
1.324786429e-05
1.221826893e-05
9.412905341e-06
9.147780742e-06
8.719938717e-06
8.176853736e-06
7.559080193e-06
5.498778428e-06
5.36287276e-06
5.126954884e-06
4.819708785e-06
4.465580901e-06
3.062295777e-06
2.997468406e-06
2.874023953e-06
2.708543266e-06
2.515118973e-06
1.624119544e-06
1.595670481e-06
1.534543734e-06
1.449876055e-06
1.34941149e-06
8.203213348e-07
8.090315978e-07
7.804457242e-07
7.393505161e-07
6.897898418e-07
3.953071279e-07
3.913741876e-07
3.787573009e-07
3.598355725e-07
3.366140184e-07
1.827117826e-07
1.815785007e-07
1.763094714e-07
1.680256297e-07
1.576694859e-07
8.200649731e-08
8.177613889e-08
7.967379377e-08
7.620053319e-08
7.177671257e-08
3.67028707e-08
3.668879846e-08
3.586539006e-08
3.444552927e-08
3.260832994e-08
1.722369313e-08
1.722478501e-08
1.688831709e-08
1.630068483e-08
1.553508251e-08
9.108941072e-09
9.089872586e-09
8.932310907e-09
8.668664811e-09
8.327649688e-09
5.745989194e-09
5.71166405e-09
5.617488004e-09
5.4766784e-09
5.300454019e-09
4.279405032e-09
4.239685536e-09
4.171160548e-09
4.079325068e-09
3.96910391e-09
3.553566327e-09
3.514592423e-09
3.459229962e-09
3.390089667e-09
3.309214412e-09
3.11986096e-09
3.084216544e-09
3.037338773e-09
2.980608833e-09
2.91526463e-09
2.819709354e-09
2.787920711e-09
2.747368539e-09
2.698994994e-09
2.643664838e-09
2.583953134e-09
2.555826724e-09
2.520450393e-09
2.47852331e-09
2.430691941e-09
2.389048164e-09
2.364139262e-09
2.333070356e-09
2.296378296e-09
2.254574529e-09
2.224654297e-09
2.202490867e-09
2.174992901e-09
2.142592687e-09
2.105694308e-09
2.085360081e-09
2.065420659e-09
2.040818165e-09
2.011893319e-09
1.978977045e-09
1.967596484e-09
1.949394338e-09
1.927080949e-09
1.900925896e-09
1.871196457e-09
1.868304684e-09
1.851409475e-09
1.830849844e-09
1.806839046e-09
1.77959516e-09
1.783889627e-09
1.767967374e-09
1.74873092e-09
1.726352172e-09
1.700998987e-09
1.709673935e-09
1.694524854e-09
1.67631728e-09
1.6551641e-09
1.631220094e-09
1.639832627e-09
1.625382099e-09
1.608030967e-09
1.587909003e-09
1.565162614e-09
1.568664404e-09
1.55503331e-09
1.538659581e-09
1.519674114e-09
1.498214615e-09
1.492823626e-09
1.480276237e-09
1.465115646e-09
1.447434334e-09
1.427380283e-09
1.41186415e-09
1.400499876e-09
1.386641102e-09
1.370427429e-09
1.352002388e-09
1.327900748e-09
1.317810482e-09
1.30540101e-09
1.290818579e-09
1.274205774e-09
1.245038447e-09
1.236193133e-09
1.225234289e-09
1.21231324e-09
1.19753168e-09
1.167704239e-09
1.159926841e-09
1.15024693e-09
1.138746839e-09
1.125558985e-09
1.0979403e-09
1.090950533e-09
1.082218042e-09
1.07185538e-09
1.059964244e-09
1.036499645e-09
1.030103674e-09
1.022153181e-09
1.012745388e-09
1.001969243e-09
9.867401064e-10
9.808377936e-10
9.735218045e-10
9.64893606e-10
9.550371832e-10
6.016586475e-10
6.503530206e-11
1.376128648e-11
8.690032117e-12
7.383040338e-12
6.692444475e-12
6.271099996e-12
6.025412694e-12
5.895805153e-12
5.834608894e-12
5.808632778e-12
5.798245783e-12
5.793958439e-12
5.791678989e-12
5.789861554e-12
5.788714873e-12
5.788294437e-12
5.788683236e-12
5.789471835e-12
5.789839787e-12
5.789820748e-12
5.789628485e-12
5.789382934e-12
5.789135343e-12
5.788901553e-12
5.788687707e-12
5.788495728e-12
5.788324585e-12
5.788166149e-12
5.788018108e-12
5.787884607e-12
5.787767023e-12
5.787660353e-12
5.787562834e-12
5.787472504e-12
5.787394029e-12
5.787330176e-12
5.787276076e-12
5.787229994e-12
5.787191677e-12
5.787159902e-12
5.787132628e-12
5.787109653e-12
5.787086456e-12
5.787069669e-12
5.787070518e-12
5.787083761e-12
5.787104382e-12
5.787125932e-12
5.787153907e-12
5.787183428e-12
5.787219493e-12
5.78725575e-12
5.787291863e-12
5.787252313e-12
5.786457541e-12
5.780406543e-12
5.749509704e-12
5.633742596e-12
5.485937333e-12
3.66110986e-08
4.720765978e-09
6.185345138e-10
1.156239606e-10
4.176657255e-11
2.335755852e-11
1.653415129e-11
1.344386949e-11
1.197781928e-11
1.130623617e-11
1.102013585e-11
1.090784306e-11
1.086677487e-11
1.085105609e-11
1.084241508e-11
1.083498229e-11
1.083334499e-11
1.083791901e-11
1.0841539e-11
1.084330439e-11
1.084379017e-11
1.084364058e-11
1.08433279e-11
1.084303568e-11
1.084277545e-11
1.084256449e-11
1.08423856e-11
1.084220784e-11
1.08420384e-11
1.084193848e-11
1.084193042e-11
1.084197831e-11
1.084201658e-11
1.084203755e-11
1.084207644e-11
1.084217585e-11
1.084234903e-11
1.084247632e-11
1.084257465e-11
1.084272739e-11
1.084293675e-11
1.084314056e-11
1.084333274e-11
1.084353813e-11
1.084370776e-11
1.084390178e-11
1.084411777e-11
1.084437264e-11
1.084456581e-11
1.08448239e-11
1.084504342e-11
1.084531096e-11
1.084553674e-11
1.084577412e-11
1.084588827e-11
1.084557866e-11
1.08436068e-11
1.083941945e-11
1.085278677e-11
1.089305663e-11
1.30017442e-07
4.072193352e-08
6.035678377e-09
9.258518939e-10
2.398731229e-10
9.608857361e-11
5.009129984e-11
3.064397965e-11
2.140075819e-11
1.702939682e-11
1.507933341e-11
1.428061239e-11
1.398365848e-11
1.388159181e-11
1.384465255e-11
1.382465041e-11
1.382067885e-11
1.38309673e-11
1.3838222e-11
1.384182582e-11
1.384304565e-11
1.384312156e-11
1.384282069e-11
1.384248398e-11
1.384219889e-11
1.384196562e-11
1.384179586e-11
1.384170008e-11
1.38416653e-11
1.384168232e-11
1.384176517e-11
1.384191262e-11
1.384210173e-11
1.384235481e-11
1.384263137e-11
1.38429471e-11
1.384333417e-11
1.384369697e-11
1.384404255e-11
1.384441921e-11
1.38448441e-11
1.384526105e-11
1.384569217e-11
1.384617277e-11
1.384664502e-11
1.384712478e-11
1.384759939e-11
1.384811106e-11
1.384856149e-11
1.384908506e-11
1.384956159e-11
1.385009623e-11
1.385057638e-11
1.385112148e-11
1.385160609e-11
1.385253662e-11
1.385572415e-11
1.387110265e-11
1.39293399e-11
1.400073426e-11
3.174722285e-07
2.116787853e-07
6.616054392e-08
8.71429849e-09
1.739292709e-09
5.643067951e-10
2.428220526e-10
1.179502166e-10
6.133497134e-11
3.49605592e-11
2.307775613e-11
1.808616613e-11
1.617462582e-11
1.551356851e-11
1.530379977e-11
1.523470339e-11
1.522139264e-11
1.523613742e-11
1.524758621e-11
1.525402426e-11
1.525705044e-11
1.525840861e-11
1.525913388e-11
1.52596751e-11
1.526018692e-11
1.526070739e-11
1.5261239e-11
1.526179378e-11
1.526236958e-11
1.526296277e-11
1.526357755e-11
1.526421655e-11
1.526487348e-11
1.52655632e-11
1.526626011e-11
1.52669725e-11
1.526771911e-11
1.526843962e-11
1.526914101e-11
1.526984294e-11
1.527055318e-11
1.527125284e-11
1.527195118e-11
1.527266558e-11
1.527337686e-11
1.527408624e-11
1.527477632e-11
1.5275476e-11
1.527613195e-11
1.527682331e-11
1.5277483e-11
1.527817353e-11
1.52788078e-11
1.527952255e-11
1.528030612e-11
1.528195555e-11
1.528686569e-11
1.530408626e-11
1.535060888e-11
1.53980522e-11
1.090742047e-06
6.160382497e-07
4.242348159e-07
8.291467422e-08
1.271426719e-08
3.196670368e-09
1.166164165e-09
5.008350413e-10
2.263714923e-10
1.046967761e-10
5.11581579e-11
2.877795318e-11
2.013671718e-11
1.70882567e-11
1.611704399e-11
1.583363446e-11
1.577107224e-11
1.578076928e-11
1.579470226e-11
1.580399411e-11
1.580921795e-11
1.581226332e-11
1.581436866e-11
1.5816094e-11
1.581764958e-11
1.581910536e-11
1.582048505e-11
1.582180596e-11
1.582307665e-11
1.58243033e-11
1.582549346e-11
1.582665057e-11
1.5827778e-11
1.582888632e-11
1.582996692e-11
1.583102501e-11
1.583206814e-11
1.583307364e-11
1.583404501e-11
1.583499201e-11
1.583591809e-11
1.583681642e-11
1.583769266e-11
1.583855353e-11
1.583939498e-11
1.584022e-11
1.58410215e-11
1.584180825e-11
1.584256127e-11
1.584331448e-11
1.584404237e-11
1.584477295e-11
1.584546951e-11
1.584622864e-11
1.584713819e-11
1.584889596e-11
1.585334569e-11
1.586566317e-11
1.589200451e-11
1.591562439e-11
1.749789645e-06
9.569633818e-07
9.817194377e-07
4.689055571e-07
7.449524675e-08
1.379492955e-08
4.066195388e-09
1.550331841e-09
6.462641927e-10
2.737540579e-10
1.167077712e-10
5.273130011e-11
2.829199494e-11
1.970052513e-11
1.695740614e-11
1.616644904e-11
1.597666766e-11
1.596187027e-11
1.597400321e-11
1.598538878e-11
1.599270434e-11
1.599735716e-11
1.600069954e-11
1.600342315e-11
1.600581688e-11
1.600799151e-11
1.601000103e-11
1.601187727e-11
1.601363983e-11
1.601530393e-11
1.601688273e-11
1.60183847e-11
1.601981794e-11
1.60211918e-11
1.602250816e-11
1.602377241e-11
1.602498965e-11
1.602615636e-11
1.60272765e-11
1.602835578e-11
1.602939732e-11
1.603039965e-11
1.603136675e-11
1.603230048e-11
1.603320016e-11
1.603407083e-11
1.603491372e-11
1.603573213e-11
1.603651895e-11
1.603728492e-11
1.603802304e-11
1.603874895e-11
1.60394571e-11
1.604022038e-11
1.604117665e-11
1.604287192e-11
1.60465494e-11
1.605468595e-11
1.606862644e-11
1.607949221e-11
2.843109312e-06
1.001039445e-06
1.363023419e-06
1.27107125e-06
3.864483436e-07
5.737666647e-08
1.251909223e-08
4.057584853e-09
1.562133199e-09
6.257047224e-10
2.494709614e-10
1.002543774e-10
4.41504174e-11
2.459459225e-11
1.83579547e-11
1.654929944e-11
1.609303364e-11
1.601935552e-11
1.602184132e-11
1.603382078e-11
1.604308602e-11
1.604937773e-11
1.605393549e-11
1.605757105e-11
1.606067422e-11
1.606342355e-11
1.606591134e-11
1.606819115e-11
1.6070299e-11
1.607226133e-11
1.607409765e-11
1.607582335e-11
1.607745128e-11
1.607899215e-11
1.608045363e-11
1.608184302e-11
1.608316643e-11
1.608442763e-11
1.608563148e-11
1.60867828e-11
1.608788551e-11
1.608894151e-11
1.608995459e-11
1.609092688e-11
1.60918592e-11
1.609275428e-11
1.60936142e-11
1.609444347e-11
1.609524196e-11
1.609601245e-11
1.609675371e-11
1.609747671e-11
1.609819299e-11
1.609897426e-11
1.60999871e-11
1.610170364e-11
1.610500362e-11
1.611104654e-11
1.611953294e-11
1.612500558e-11
4.282131644e-06
7.000851033e-07
1.420290812e-06
1.957823768e-06
1.282411592e-06
2.50616496e-07
4.009239535e-08
1.035682714e-08
3.548677052e-09
1.337644258e-09
5.074269216e-10
1.899654662e-10
7.337174936e-11
3.340049649e-11
2.079804182e-11
1.716719397e-11
1.623351252e-11
1.604985745e-11
1.60304382e-11
1.604027619e-11
1.605102799e-11
1.60589944e-11
1.606486663e-11
1.606948132e-11
1.607331925e-11
1.607663454e-11
1.607957068e-11
1.608221484e-11
1.608462449e-11
1.608683998e-11
1.608889064e-11
1.609079936e-11
1.609258405e-11
1.609425922e-11
1.609583653e-11
1.609732581e-11
1.609873536e-11
1.610007201e-11
1.610134199e-11
1.610255067e-11
1.61037028e-11
1.610480177e-11
1.610585159e-11
1.610685591e-11
1.61078174e-11
1.610873814e-11
1.610961899e-11
1.611046324e-11
1.611127345e-11
1.611205288e-11
1.61128047e-11
1.611354057e-11
1.611428297e-11
1.611511419e-11
1.611622823e-11
1.611807834e-11
1.61213455e-11
1.612660581e-11
1.61330159e-11
1.613629258e-11
9.102873266e-06
8.064781614e-07
1.343752365e-06
2.407356064e-06
2.533556001e-06
9.959004592e-07
1.452865014e-07
2.753977124e-08
7.94858027e-09
2.739868718e-09
9.813192134e-10
3.471068351e-10
1.227870328e-10
4.790991856e-11
2.474849573e-11
1.815673435e-11
1.645289537e-11
1.608982888e-11
1.60318441e-11
1.603543791e-11
1.604666349e-11
1.60561243e-11
1.606336593e-11
1.606906526e-11
1.607373436e-11
1.607768523e-11
1.608111373e-11
1.608414794e-11
1.608687384e-11
1.608935057e-11
1.609162004e-11
1.609371421e-11
1.609565723e-11
1.609746846e-11
1.60991635e-11
1.610075516e-11
1.610225406e-11
1.610366917e-11
1.610500823e-11
1.610627774e-11
1.610748351e-11
1.610863017e-11
1.610972226e-11
1.611076384e-11
1.611175879e-11
1.611271044e-11
1.61136206e-11
1.611449166e-11
1.61153256e-11
1.611612611e-11
1.611689952e-11
1.61176622e-11
1.611844727e-11
1.611935311e-11
1.612060172e-11
1.612263874e-11
1.612601932e-11
1.613103295e-11
1.613661883e-11
1.613882428e-11
1.987772235e-05
1.542503356e-06
1.018691561e-06
2.701465671e-06
3.528181259e-06
2.537310563e-06
5.421309964e-07
7.617330584e-08
1.754040148e-08
5.367794119e-09
1.794642367e-09
6.01321088e-10
1.993818887e-10
6.97643963e-11
3.062256198e-11
1.963658339e-11
1.679060491e-11
1.615671948e-11
1.603730063e-11
1.602893726e-11
1.603915001e-11
1.604970977e-11
1.605825869e-11
1.606509983e-11
1.607069139e-11
1.60753638e-11
1.607935213e-11
1.608282508e-11
1.608590176e-11
1.608866503e-11
1.609117309e-11
1.609346868e-11
1.609558362e-11
1.609754294e-11
1.609936644e-11
1.610107024e-11
1.610266755e-11
1.610416945e-11
1.610558535e-11
1.610692319e-11
1.610819e-11
1.610939163e-11
1.611053338e-11
1.611161994e-11
1.611265533e-11
1.611364332e-11
1.611458689e-11
1.611548933e-11
1.61163533e-11
1.611718282e-11
1.611798542e-11
1.611878249e-11
1.61196189e-11
1.612061363e-11
1.612201324e-11
1.612424567e-11
1.612776757e-11
1.613269016e-11
1.613784743e-11
1.61393345e-11
3.519040448e-05
3.628877029e-06
7.96009598e-07
2.9417714e-06
4.585262064e-06
4.472646956e-06
1.545963968e-06
2.186064809e-07
3.905287715e-08
1.015298343e-08
3.081887693e-09
9.667688116e-10
3.02527978e-10
9.815792021e-11
3.821754215e-11
2.16002974e-11
1.726389392e-11
1.62610195e-11
1.60519478e-11
1.60239331e-11
1.603109956e-11
1.604220725e-11
1.605192616e-11
1.605992148e-11
1.606651052e-11
1.607199539e-11
1.607662437e-11
1.608059805e-11
1.608407037e-11
1.608715252e-11
1.608992342e-11
1.609243927e-11
1.609474144e-11
1.609686137e-11
1.609882378e-11
1.610064842e-11
1.610235149e-11
1.610394641e-11
1.610544455e-11
1.610685543e-11
1.610818741e-11
1.610944745e-11
1.611064168e-11
1.611177547e-11
1.61128533e-11
1.611387963e-11
1.611485788e-11
1.611579194e-11
1.611668575e-11
1.611754518e-11
1.611838017e-11
1.611921773e-11
1.612011466e-11
1.612120983e-11
1.612276634e-11
1.612518401e-11
1.61288313e-11
1.613368567e-11
1.613852938e-11
1.613938828e-11
5.612049039e-05
5.546214929e-06
7.624335579e-07
2.842787566e-06
5.776706842e-06
6.613476827e-06
3.595432628e-06
6.13485588e-07
9.347018826e-08
1.952976531e-08
5.128017491e-09
1.465408501e-09
4.287050956e-10
1.308057129e-10
4.687781196e-11
2.39294547e-11
1.786800105e-11
1.640908063e-11
1.607932132e-11
1.602203022e-11
1.602343179e-11
1.603433322e-11
1.604500194e-11
1.605410816e-11
1.606173527e-11
1.606811184e-11
1.607346625e-11
1.607801294e-11
1.608193526e-11
1.608537515e-11
1.608843638e-11
1.609119256e-11
1.609369712e-11
1.609598943e-11
1.609810005e-11
1.610005288e-11
1.610186762e-11
1.610356028e-11
1.610514447e-11
1.610663152e-11
1.610803113e-11
1.610935144e-11
1.611059948e-11
1.611178139e-11
1.611290248e-11
1.61139679e-11
1.611498164e-11
1.611594825e-11
1.611687249e-11
1.611776221e-11
1.611863121e-11
1.611951395e-11
1.612048078e-11
1.6121687e-11
1.612339966e-11
1.612598552e-11
1.612973197e-11
1.613450776e-11
1.613907445e-11
1.61393243e-11
6.842155329e-05
8.071230959e-06
9.438320698e-07
2.006021107e-06
7.00297756e-06
9.174320565e-06
6.544167735e-06
1.608284127e-06
2.205787278e-07
3.777192811e-08
8.18082687e-09
2.057485082e-09
5.556694748e-10
1.611383859e-10
5.504109697e-11
2.630330099e-11
1.854939088e-11
1.659517799e-11
1.612050256e-11
1.602433837e-11
1.601685131e-11
1.602656388e-11
1.603783697e-11
1.604791771e-11
1.605654953e-11
1.606384888e-11
1.606999203e-11
1.607517991e-11
1.607961001e-11
1.608345103e-11
1.608683311e-11
1.608985107e-11
1.609257331e-11
1.609504943e-11
1.609731704e-11
1.609940513e-11
1.610133714e-11
1.610313212e-11
1.610480593e-11
1.610637193e-11
1.610784124e-11
1.610922333e-11
1.611052621e-11
1.611175705e-11
1.611292204e-11
1.611402703e-11
1.611507663e-11
1.611607618e-11
1.611703146e-11
1.611795295e-11
1.611885915e-11
1.611979209e-11
1.612083601e-11
1.612215968e-11
1.612402417e-11
1.612675931e-11
1.613057731e-11
1.613525843e-11
1.613956023e-11
1.613914905e-11
0.0001126616326
1.468576312e-05
1.190617324e-06
1.419615276e-06
8.705121529e-06
1.23634903e-05
1.04226021e-05
3.657523713e-06
4.98267938e-07
7.422931987e-08
1.306822088e-08
2.806961354e-09
6.876885012e-10
1.89430644e-10
6.271123341e-11
2.868902265e-11
1.928626604e-11
1.681074012e-11
1.617367181e-11
1.603120705e-11
1.601205108e-11
1.601952094e-11
1.603092659e-11
1.604171955e-11
1.605120586e-11
1.605936374e-11
1.606629419e-11
1.607215592e-11
1.607713634e-11
1.608141692e-11
1.608514946e-11
1.608845025e-11
1.609140463e-11
1.609407462e-11
1.60965064e-11
1.609873519e-11
1.610078873e-11
1.610268938e-11
1.610445546e-11
1.610610235e-11
1.610764275e-11
1.61090876e-11
1.611044614e-11
1.61117266e-11
1.611293599e-11
1.61140808e-11
1.611516643e-11
1.611619916e-11
1.611718627e-11
1.611814159e-11
1.611908901e-11
1.612007808e-11
1.612120567e-11
1.612264964e-11
1.612465997e-11
1.612752628e-11
1.613139086e-11
1.613596371e-11
1.614000185e-11
1.613884978e-11
0.0001677894247
2.459439856e-05
3.133306972e-06
1.641599778e-06
1.150442898e-05
1.654778287e-05
1.473024543e-05
6.990075527e-06
1.145883951e-06
1.576521934e-07
2.150462247e-08
3.709701847e-09
8.037407601e-10
2.110784795e-10
6.894840719e-11
3.082336537e-11
1.999231265e-11
1.702767141e-11
1.623136247e-11
1.604144492e-11
1.600942418e-11
1.601386926e-11
1.602489545e-11
1.603602872e-11
1.604609472e-11
1.605492688e-11
1.606254369e-11
1.606904201e-11
1.607457336e-11
1.60793099e-11
1.608341202e-11
1.608701175e-11
1.609021018e-11
1.609308236e-11
1.609568408e-11
1.60980575e-11
1.610023536e-11
1.610224358e-11
1.610410326e-11
1.610583191e-11
1.610744401e-11
1.610895201e-11
1.611036651e-11
1.61116967e-11
1.611295045e-11
1.611413493e-11
1.611525665e-11
1.611632304e-11
1.611734335e-11
1.611833526e-11
1.611932864e-11
1.612038069e-11
1.612159832e-11
1.6123163e-11
1.61253112e-11
1.612829125e-11
1.613218094e-11
1.613663623e-11
1.614041617e-11
1.613854109e-11
0.0002364495621
3.352316299e-05
5.149573543e-06
2.332536065e-06
1.604292889e-05
2.229428827e-05
1.938473119e-05
1.073984244e-05
2.417758135e-06
3.463144828e-07
3.734869851e-08
4.877523924e-09
9.047926065e-10
2.277269071e-10
7.424799835e-11
3.272974971e-11
2.063417948e-11
1.722713762e-11
1.628716258e-11
1.605363084e-11
1.600905501e-11
1.601012537e-11
1.602032258e-11
1.603137711e-11
1.604166364e-11
1.605088589e-11
1.605898878e-11
1.606600243e-11
1.607202418e-11
1.607719396e-11
1.608166193e-11
1.608556411e-11
1.60890116e-11
1.609209021e-11
1.609486483e-11
1.609738468e-11
1.609968774e-11
1.610180383e-11
1.610375703e-11
1.610556717e-11
1.610725062e-11
1.610882139e-11
1.611029139e-11
1.611167076e-11
1.611296829e-11
1.611419204e-11
1.611534968e-11
1.611645016e-11
1.611750512e-11
1.611853651e-11