/*--------------------------------*- C++ -*----------------------------------*\
  =========                 |
  \\      /  F ield         | OpenFOAM: The Open Source CFD Toolbox
   \\    /   O peration     | Website:  https://openfoam.org
    \\  /    A nd           | Version:  10
     \\/     M anipulation  |
\*---------------------------------------------------------------------------*/
FoamFile
{
    format      ascii;
    class       volScalarField;
    location    "0.0250188088";
    object      C2H5;
}
// * * * * * * * * * * * * * * * * * * * * * * * * * * * * * * * * * * * * * //

dimensions      [0 0 0 0 0 0 0];

internalField   nonuniform List<scalar> 
5170
(
0
0
0
0
0
0
0
0
0
0
0
0
0
0
0
0
0
0
0
0
0
0
0
0
0
0
0
0
0
0
0
0
0
0
0
0
0
0
0
0
0
0
0
0
0
0
0
0
0
0
0
0
0
0
0
0
0
0
0
0
0
0
0
0
0
0
0
0
0
0
0
0
0
0
0
0
0
0
0
0
0
0
0
0
0
0
0
0
0
0
0
0
0
0
0
0
0
0
0
1.02747736e-10
1.983102984e-26
0
4.115771198e-28
4.029254954e-28
4.295595269e-28
1.188307602e-26
0
0
0
7.621647549e-28
2.481328497e-27
9.573044687e-28
2.423625733e-27
7.611683879e-29
0
0
4.805703978e-26
2.393693819e-26
0
0
1.33390269e-21
4.695479724e-23
9.689230583e-23
0
0
0
0
5.08275324e-20
1.125100972e-17
9.166682425e-17
0
0
0
0
0
0
0
4.927778028e-19
0
1.838523529e-17
1.159455676e-15
1.893852462e-16
0
0
0
0
0
0
0
0
0
0
0
0
0
0
0
0
0
0
0
0
0
0
0
0
0
0
0
0
0
0
0
0
0
0
0
0
0
0
0
0
0
0
0
0
0
0
0
0
4.922479437e-12
0
0
0
0
2.05959967e-09
1.593241198e-10
3.309869901e-11
8.741833245e-13
2.080455747e-14
0
0
3.080185354e-10
5.089613729e-09
8.261149361e-08
0
3.747232875e-11
9.113172143e-10
9.14448379e-09
1.001291854e-07
0
1.128491185e-10
1.513717747e-09
1.188452648e-08
9.066566606e-08
3.03129361e-12
2.156634164e-10
1.892312198e-09
1.285109353e-08
7.313237132e-08
2.04384676e-11
3.159129199e-10
1.851237403e-09
1.269680336e-08
5.856167987e-08
5.349056428e-11
4.513660289e-10
2.207415678e-09
1.244493874e-08
5.258474847e-08
1.100335023e-10
6.475529068e-10
2.758852739e-09
1.294587819e-08
5.596797508e-08
1.707659987e-10
7.421852327e-10
3.365420153e-09
1.364968306e-08
5.771359303e-08
2.156544116e-10
6.094746218e-10
3.937415064e-09
1.441021936e-08
5.890489462e-08
3.236853913e-10
9.778955654e-10
4.377254665e-09
1.443318091e-08
5.446258193e-08
5.22816218e-10
1.452183435e-09
4.834735674e-09
1.511040256e-08
5.541492031e-08
6.927033575e-10
1.879258167e-09
5.375463225e-09
1.653996848e-08
5.947676968e-08
9.878194116e-10
2.321506176e-09
5.969645111e-09
1.800121159e-08
6.172675612e-08
1.427954148e-09
2.751349717e-09
6.661921401e-09
1.982767988e-08
6.49790603e-08
1.920004718e-09
3.303987945e-09
7.672863987e-09
2.25068872e-08
7.018154276e-08
2.383540299e-09
3.886240113e-09
8.965025896e-09
2.542869038e-08
7.409248155e-08
3.149132089e-09
4.978335114e-09
1.141866128e-08
3.095778719e-08
8.543826231e-08
4.578484036e-09
7.120111683e-09
1.54531457e-08
3.813415691e-08
9.724477894e-08
7.096429945e-09
1.098353674e-08
2.314006276e-08
5.381022884e-08
1.37198796e-07
1.271137131e-08
1.858597721e-08
3.623029974e-08
7.971540655e-08
1.862449473e-07
2.163522649e-08
2.872428321e-08
4.800909479e-08
8.941652695e-08
1.746581255e-07
3.243102429e-08
3.833285729e-08
5.284949151e-08
7.941378887e-08
1.243340451e-07
3.3081936e-08
3.621479407e-08
4.337091206e-08
5.496738379e-08
7.172764949e-08
2.144021987e-08
2.24439927e-08
2.449034635e-08
2.747689125e-08
3.120198638e-08
9.379892481e-09
9.545335709e-09
9.844135287e-09
1.019553744e-08
1.054375836e-08
3.207915305e-09
3.208128854e-09
3.213659572e-09
3.195229991e-09
3.126776966e-09
1.10898851e-09
1.103872882e-09
1.087089423e-09
1.056237914e-09
1.010792676e-09
3.969059439e-10
3.935540561e-10
3.847603177e-10
3.700138444e-10
3.507983213e-10
1.457848956e-10
1.444104198e-10
1.410836189e-10
1.351204849e-10
1.269125382e-10
5.431406561e-11
5.38932228e-11
5.28025234e-11
5.060516014e-11
4.754148412e-11
1.886093507e-11
1.879635989e-11
1.86247046e-11
1.827149247e-11
1.758361714e-11
7.775115446e-12
7.721554838e-12
7.593451482e-12
7.39153576e-12
7.104155379e-12
3.413687192e-12
3.38774427e-12
3.331995793e-12
3.258826005e-12
3.172509669e-12
1.855843028e-12
1.852254166e-12
1.844286088e-12
1.834955782e-12
1.827451238e-12
1.331801406e-12
1.331972812e-12
1.331275313e-12
1.336774561e-12
1.348458372e-12
1.085655609e-12
1.092803736e-12
1.108675801e-12
1.133269151e-12
1.166822576e-12
9.226359751e-13
9.298426496e-13
9.453849517e-13
9.684056855e-13
9.982078515e-13
6.656663132e-13
6.719569285e-13
6.856006034e-13
7.062552006e-13
7.336229911e-13
4.237708703e-13
4.278746105e-13
4.366284295e-13
4.496897074e-13
4.663187838e-13
2.22743893e-13
2.24771532e-13
2.282267749e-13
2.317449535e-13
2.349462865e-13
5.883421865e-14
5.790936225e-14
5.558238423e-14
5.126570606e-14
4.331162992e-14
0
0
0
0
0
6.920802822e-15
2.002469548e-14
2.364171309e-14
2.30886631e-14
2.089661535e-14
9.093954724e-15
9.105487742e-15
8.562238175e-15
7.433568975e-15
5.456442056e-15
0
0
0
0
0
0
0
0
0
0
0
0
0
0
0
2.077449195e-14
2.032504246e-14
1.943509439e-14
1.814218988e-14
1.65208317e-14
1.109165353e-14
1.086643504e-14
1.035387621e-14
9.531116086e-15
8.346712703e-15
1.833370577e-15
1.772338091e-15
1.597849956e-15
1.121840883e-15
5.222986252e-16
0
0
0
0
0
0
0
0
0
0
0
0
0
0
0
0
2.618814171e-18
3.28208024e-15
3.562602136e-15
3.213675357e-15
1.096519579e-14
1.079431497e-14
1.047548625e-14
1.000859844e-14
9.454453475e-15
1.340849572e-14
1.312728186e-14
1.232135358e-14
9.760940642e-15
8.476021823e-15
8.212885499e-15
7.861943847e-15
7.207914918e-15
6.399317881e-15
5.776083131e-15
1.089442788e-14
1.049727537e-14
9.753515126e-15
8.823270943e-15
8.028067375e-15
2.331875911e-14
2.292726517e-14
2.220030424e-14
2.1313547e-14
2.07329368e-14
6.146976308e-14
6.067367945e-14
5.897587473e-14
5.647430778e-14
5.329026079e-14
8.384827678e-14
8.307020407e-14
8.145597095e-14
7.920097475e-14
7.638743429e-14
1.076308801e-13
1.07094142e-13
1.059926343e-13
1.044503016e-13
1.025515958e-13
1.190757127e-13
1.189453338e-13
1.185880944e-13
1.176099795e-13
1.151857883e-13
1.277490409e-13
1.271418066e-13
1.258384059e-13
1.238876431e-13
1.212025954e-13
1.547658619e-13
1.5364988e-13
1.512590681e-13
1.477198686e-13
1.430150063e-13
2.175915986e-13
2.156807603e-13
2.115729464e-13
2.053667207e-13
1.963602628e-13
2.673686513e-13
2.648867322e-13
2.596662857e-13
2.520944313e-13
2.423364669e-13
2.973571108e-13
2.944335576e-13
2.881554931e-13
2.788385109e-13
2.666019305e-13
2.954052274e-13
2.931051901e-13
2.88201863e-13
2.810263549e-13
2.717456444e-13
3.653821608e-13
3.642483188e-13
3.619081923e-13
3.586703905e-13
3.552534229e-13
2.692352204e-07
4.267872415e-07
3.857570334e-07
2.728977923e-07
1.999201564e-07
1.794844962e-07
2.011051004e-07
1.938707398e-07
1.841098528e-07
1.534700686e-07
1.501956513e-07
1.556726197e-07
1.527321393e-07
1.540096584e-07
1.588881783e-07
1.607365322e-07
1.74698351e-07
2.075737032e-07
2.833435994e-07
3.565122847e-07
2.882145235e-07
1.729399889e-07
8.700838101e-08
3.417379771e-08
1.081104109e-08
3.087402499e-09
9.807521022e-10
3.37994162e-10
1.208583463e-10
4.549840448e-11
1.702782495e-11
6.897514241e-12
3.120515287e-12
1.829190553e-12
1.360979714e-12
1.19454292e-12
1.022253848e-12
7.564467725e-13
4.792368041e-13
2.326468413e-13
3.376535379e-14
0
1.828649329e-14
3.141506254e-15
0
0
0
1.519202012e-14
7.313328186e-15
0
0
0
0
2.667036281e-15
9.019026113e-15
7.195808326e-15
5.545139482e-15
7.652531947e-15
2.136012842e-14
5.075322681e-14
7.407487334e-14
1.009783142e-13
1.124299163e-13
1.187036418e-13
1.388751069e-13
1.894745621e-13
2.342001354e-13
2.564264955e-13
2.641602211e-13
3.515637476e-13
5.591431535e-07
7.434909255e-08
3.211815295e-09
1.044710656e-10
8.504270817e-12
1.325137946e-06
1.3593509e-05
7.799805955e-07
2.464879708e-08
1.180767206e-09
1.337312263e-06
6.215219676e-06
6.156427425e-07
3.308482907e-08
4.468854014e-09
8.581934253e-07
3.841028101e-06
8.389808874e-07
6.839184229e-08
3.538179392e-09
6.041052681e-07
3.123607847e-06
1.083941556e-05
1.041996602e-06
7.502026913e-08
5.484379273e-07
3.412866457e-06
1.632900103e-05
2.032569259e-06
1.833979848e-07
6.436929706e-07
4.203695744e-06
1.467736007e-05
2.194377741e-06
2.511962951e-07
5.742601763e-07
3.309425857e-06
1.069670547e-05
1.948018576e-06
2.603563115e-07
5.106067474e-07
2.578905864e-06
9.088551822e-06
5.359427087e-06
7.196845385e-07
4.009450825e-07
2.012776492e-06
6.594523753e-06
8.841901168e-06
1.483028448e-06
3.828845227e-07
1.811876619e-06
6.024676425e-06
1.191468577e-05
2.138274061e-06
3.881741095e-07
1.77202349e-06
6.286163371e-06
1.294753274e-05
2.520962919e-06
3.665414197e-07
1.623475678e-06
5.393607652e-06
1.244842261e-05
2.983853627e-06
3.595979008e-07
1.49789021e-06
4.789648698e-06
1.183385572e-05
5.830507477e-06
3.531235459e-07
1.380929926e-06
4.408197235e-06
1.110724597e-05
7.44091427e-06
3.522801015e-07
1.309570745e-06
4.170216175e-06
1.046224531e-05
9.101956342e-06
3.701564665e-07
1.296946507e-06
4.008251829e-06
9.874506929e-06
1.012666076e-05
4.344869468e-07
1.473017247e-06
4.292265396e-06
1.022830363e-05
9.419231062e-06
5.821604321e-07
1.909598797e-06
5.436467509e-06
1.185980627e-05
7.441389048e-06
7.095062932e-07
2.254437149e-06
6.43942721e-06
1.335897223e-05
4.049583375e-06
5.09605463e-07
1.306556086e-06
3.103876009e-06
6.46362398e-06
9.256485475e-06
2.603407131e-07
4.973890044e-07
8.842926505e-07
1.390391282e-06
1.680166042e-06
1.134597156e-07
1.641471133e-07
2.164597899e-07
2.51499136e-07
2.407732541e-07
3.969421962e-08
4.593276881e-08
4.77939899e-08
4.428593313e-08
3.583635945e-08
1.165786316e-08
1.167956973e-08
1.062906731e-08
8.762014392e-09
6.525743376e-09
3.133575809e-09
2.937954226e-09
2.522960443e-09
1.991779899e-09
1.450826732e-09
9.68063006e-10
8.801645157e-10
7.419763542e-10
5.848870083e-10
4.339765365e-10
3.290907884e-10
2.942770677e-10
2.492514927e-10
1.949349539e-10
1.434211634e-10
1.15080207e-10
1.056833347e-10
9.010202311e-11
7.144994472e-11
5.027682233e-11
4.33358445e-11
3.772231327e-11
3.188684178e-11
2.703933234e-11
2.048754735e-11
1.64746455e-11
1.465364655e-11
1.21724217e-11
1.068664945e-11
8.761264457e-12
6.710000154e-12
6.141378546e-12
5.209436326e-12
4.521215807e-12
3.974408727e-12
3.086714534e-12
2.93330781e-12
2.755714293e-12
2.516883326e-12
2.298628523e-12
1.84680965e-12
1.799145053e-12
1.745237971e-12
1.720001675e-12
1.772314328e-12
1.382850431e-12
1.424228837e-12
1.478677107e-12
1.552137729e-12
1.647721266e-12
1.234326029e-12
1.308261659e-12
1.383501841e-12
1.492972182e-12
1.650736822e-12
1.06043956e-12
1.127731497e-12
1.202006798e-12
1.303115447e-12
1.400192465e-12
7.94213184e-13
8.568000528e-13
8.974687086e-13
9.286020246e-13
9.760225798e-13
5.012703636e-13
5.238062826e-13
5.291390173e-13
5.283691716e-13
5.504719629e-13
2.287784335e-13
2.180758145e-13
1.978947284e-13
1.964641457e-13
2.113893114e-13
2.273545455e-14
1.493364582e-14
1.726048888e-14
5.336921311e-14
5.696374486e-14
0
1.281059694e-14
1.667178201e-14
1.105661399e-14
2.428325591e-15
1.484643197e-14
7.10801628e-15
3.059315794e-15
0
0
0
0
0
0
0
0
4.577337773e-16
0
0
0
0
0
0
0
6.188767144e-16
0
0
8.200524991e-15
1.045078483e-14
5.904000211e-15
1.310405362e-14
1.012313731e-14
7.919042168e-15
4.214082724e-15
1.213123969e-15
5.940129378e-15
3.547280963e-15
1.804355947e-15
0
0
0
0
0
0
0
0
0
0
0
0
0
0
0
0
0
0
0
0
3.093547273e-15
5.650996721e-16
3.507904532e-15
2.009932635e-15
3.346277311e-15
3.922427026e-15
3.967065667e-15
8.253842194e-15
7.281828071e-15
4.032732975e-15
4.929624791e-16
0
3.401611795e-15
1.6710711e-15
8.080423962e-16
3.018814966e-16
4.044137015e-17
3.258868549e-15
1.686745782e-15
8.113381791e-16
3.094765606e-16
0
5.119072174e-15
3.064145978e-15
1.689070667e-15
8.690122361e-16
2.455912387e-15
1.94846713e-14
1.66768471e-14
1.400979562e-14
1.303514213e-14
9.168230006e-15
4.642439001e-14
3.974074672e-14
3.323869246e-14
2.777837443e-14
2.354618755e-14
7.011273855e-14
6.417973672e-14
5.96653919e-14
5.698680633e-14
5.661337136e-14
9.816655077e-14
9.462090245e-14
9.267463543e-14
9.310790421e-14
9.606350839e-14
1.091033138e-13
1.14371089e-13
1.089293949e-13
1.022514708e-13
9.744497574e-14
1.1495017e-13
1.08387003e-13
1.0103564e-13
9.366059151e-14
8.673913622e-14
1.324059958e-13
1.210534025e-13
1.090500229e-13
9.646422295e-14
8.249796082e-14
1.779394534e-13
1.584198681e-13
1.377628798e-13
1.166320906e-13
9.606814128e-14
2.207697769e-13
1.981371618e-13
1.737038743e-13
1.455230778e-13
1.155354183e-13
2.398779964e-13
2.106604291e-13
1.815718143e-13
1.530463807e-13
1.260801582e-13
2.520218453e-13
2.317586489e-13
2.119567295e-13
1.948580738e-13
1.826925148e-13
3.455034272e-13
3.37410111e-13
3.324087434e-13
3.301496673e-13
3.275706218e-13
1.143561808e-12
3.318049998e-12
0
0
0
0
0
0
0
0
0
0
0
0
0
0
0
0
0
0
0
0
0
0
0
0
0
0
0
0
0
0
0
0
0
0
0
0
0
0
0
0
0
0
0
0
0
0
0
0
0
0
0
0
0
0
0
0
0
0
2.339161545e-11
3.338442183e-11
0
0
0
0
0
0
0
0
0
0
0
0
0
0
0
0
0
0
0
0
0
0
0
0
0
0
0
0
0
0
0
0
0
0
0
0
0
0
0
0
0
0
0
0
0
0
0
0
0
0
0
0
0
0
0
0
0
0
1.234494334e-10
2.485682032e-15
0
0
0
0
0
0
0
0
0
0
0
0
0
0
0
0
0
0
0
0
0
0
0
0
0
0
0
0
0
0
0
0
0
0
0
0
0
0
0
0
0
0
0
0
0
0
0
0
0
0
0
0
0
0
0
0
0
0
8.706217259e-10
5.69812761e-11
1.237045266e-11
0
0
0
0
0
0
0
0
0
0
0
0
0
0
0
0
0
0
0
0
0
0
0
0
0
0
0
0
0
0
0
0
0
0
0
0
0
0
0
0
0
0
0
0
0
0
0
0
0
0
0
0
0
0
0
0
0
5.659872702e-09
3.457732376e-10
7.476307098e-12
7.403015009e-12
0
0
0
0
0
0
0
0
0
0
0
0
0
0
0
0
0
0
0
0
0
0
0
0
0
0
0
0
0
0
0
0
0
0
0
0
0
0
0
0
0
0
0
0
0
0
0
0
0
0
0
0
0
0
0
0
1.229359399e-08
1.587192256e-09
1.984985165e-10
7.941260031e-11
7.30435122e-12
0
0
0
0
0
0
0
0
0
0
0
0
0
0
0
0
0
0
0
0
0
0
0
0
0
0
0
0
0
0
0
0
0
0
0
0
0
0
0
0
0
0
0
0
0
0
0
0
0
0
0
0
0
0
0
1.578039596e-08
4.139432884e-09
8.134641172e-10
8.693151022e-11
3.582173392e-11
2.52318957e-12
0
0
0
0
0
0
0
0
0
0
0
0
0
0
0
0
0
0
0
0
0
0
0
0
0
0
0
0
0
0
0
0
0
0
0
0
0
0
0
0
0
0
0
0
0
0
0
0
0
0
0
0
0
0
2.156947233e-08
4.890002269e-09
2.406207436e-09
3.496283572e-10
1.138517666e-10
2.552133386e-11
8.620291384e-13
0
0
0
0
0
0
0
0
0
0
0
0
0
0
0
0
0
0
0
0
0
0
0
0
0
0
0
0
0
0
0
0
0
0
0
0
0
0
0
0
0
0
0
0
0
0
0
0
0
0
0
0
0
6.433981649e-08
5.322065628e-09
5.373544483e-09
1.325578675e-09
1.534813525e-10
9.822150987e-11
1.016765513e-11
0
0
0
0
0
0
0
0
0
0
0
0
0
0
0
0
0
0
0
0
0
0
0
0
0
0
0
0
0
0
0
0
0
0
0
0
0
0
0
0
0
0
0
0
0
0
0
0
0
0
0
0
0
1.614212392e-07
1.208054271e-08
7.330432964e-09
3.770071554e-09
5.90026649e-10
6.088311177e-11
3.080611479e-11
2.548150681e-12
0
0
0
0
0
0
0
0
0
0
0
0
0
0
0
0
0
0
0
0
0
0
0
0
0
0
0
0
0
0
0
0
0
0
0
0
0
0
0
0
0
0
0
0
0
0
0
0
0
0
0
0
2.657655742e-07
2.70419785e-08
5.716919615e-09
1.000486901e-08
1.952337654e-09
2.33909516e-10
1.108966877e-10
1.302619374e-11
6.412827573e-15
0
0
0
0
0
0
0
0
0
0
0
0
0
0
0
0
0
0
0
0
0
0
0
0
0
0
0
0
0
0
0
0
0
0
0
0
0
0
0
0
0
0
0
0
0
0
0
0
0
0
0
3.554535522e-07
3.67100334e-08
4.8160195e-09
2.068272691e-08
5.557235639e-09
7.38782407e-10
6.731654484e-11
3.195396185e-11
2.890318966e-12
0
0
0
0
0
0
0
0
0
0
0
0
0
0
0
0
0
0
0
0
0
0
0
0
0
0
0
0
0
0
0
0
0
0
0
0
0
0
0
0
0
0
0
0
0
0
0
0
0
0
0
4.472003717e-07
5.288688068e-08
6.923927158e-09
2.182486866e-08
1.402896433e-08
2.084666029e-09
2.190730739e-10
8.206446534e-11
8.882999091e-12
2.961533005e-14
0
0
0
0
0
0
0
0
0
0
0
0
0
0
0
0
0
0
0
0
0
0
0
0
0
0
0
0
0
0
0
0
0
0
0
0
0
0
0
0
0
0
0
0
0
0
0
0
0
0
9.218831629e-07
1.189262353e-07
1.06555615e-08
1.29972926e-08
3.628721435e-08
5.703680583e-09
6.656861311e-10
1.96726331e-10
1.929631587e-11
6.370279816e-13
0
0
0
0
0
0
0
0
0
0
0
0
0
0
0
0
0
0
0
0
0
0
0
0
0
0
0
0
0
0
0
0
0
0
0
0
0
0
0
0
0
0
0
0
0
0
0
0
0
0
1.302959287e-06
1.900919901e-07
2.402145258e-08
1.198065789e-08
8.539486491e-08
1.32759614e-08
1.656096154e-09
2.119232817e-10
4.226447878e-11
2.673262905e-12
0
0
0
0
0
0
0
0
0
0
0
0
0
0
0
0
0
0
0
0
0
0
0
0
0
0
0
0
0
0
0
0
0
0
0
0
0
0
0
0
0
0
0
0
0
0
0
0
0
0
1.739977633e-06
2.662732977e-07
3.861995539e-08
1.98968766e-08
1.568083608e-07
2.373677161e-08
3.124264875e-09
3.846727095e-10
6.601601745e-11
4.597445462e-12
0
0
0
0
0
0
0
0
0
0
0
0
0
0
0
0
0
0
0
0
0
0
0
0
0
0
0
0
0
0
0
0
0
0
0
0
0
0
0
0
0
0
0
0
0
0
0
0
0
0
2.050774839e-06
3.584964783e-07
5.758329343e-08
2.750788161e-08
1.874750534e-07
2.875708448e-08
3.950608261e-09
4.898225682e-10
8.912591539e-11
5.906770196e-12
0
0
0
0
0
0
0
0
0
0
0
0
0
0
0
0
0
0
0
0
0
0
0
0
0
0
0
0
0
0
0
0
0
0
0
0
0
0
0
0
0
0
0
0
0
0
0
0
0
0
2.034094546e-06
3.753132499e-07
1.052917381e-07
3.319176341e-07
1.327236364e-07
2.044984806e-08
2.901282876e-09
3.280568716e-10
6.205436968e-11
5.992610228e-12
0
0
0
0
0
0
0
0
0
0
0
0
0
0
0
0
0
0
0
0
0
0
0
0
0
0
0
0
0
0
0
0
0
0
0
0
0
0
0
0
0
0
0
0
0
0
0
0
0
0
1.619877302e-06
2.999825564e-07
1.327300425e-07
5.685408279e-07
8.419813906e-08
1.109033295e-08
1.410798797e-09
2.519330696e-10
3.8885803e-11
1.803686351e-11
1.155220947e-12
0
0
0
0
0
0
0
0
0
0
0
0
0
0
0
0
0
0
0
0
0
0
0
0
0
0
0
0
0
0
0
0
0
0
0
0
0
0
0
0
0
0
0
0
0
0
0
0
0
1.052499485e-06
4.973269092e-07
1.752002704e-06
2.918948057e-07
3.540194001e-08
4.439643689e-09
5.872148334e-10
1.176823694e-10
3.050312708e-11
1.731232298e-11
8.107690077e-12
6.530786243e-13
0
0
0
0
0
0
0
0
0
0
0
0
0
0
0
0
0
0
0
0
0
0
0
0
0
0
0
0
0
0
0
0
0
0
0
0
0
0
0
0
0
0
0
0
0
0
0
0
6.114949771e-06
2.659553274e-06
5.681434508e-07
8.162640665e-08
1.107983486e-08
1.59375434e-09
2.677659935e-10
5.240774702e-11
1.960407736e-11
1.042037776e-11
1.738911261e-11
9.348422501e-12
1.064954867e-12
0
0
0
0
0
0
0
0
0
0
0
0
0
0
0
0
0
0
0
0
0
0
0
0
0
0
0
0
0
0
0
0
0
0
0
0
0
0
0
0
0
0
0
0
0
0
0
1.234059564e-06
4.506558952e-07
9.977536623e-08
1.782951216e-08
3.049529752e-09
5.460101716e-10
8.274561022e-11
2.016330133e-11
3.64250268e-12
3.801537591e-12
3.240491931e-12
1.603018054e-11
8.411716455e-12
8.476059836e-13
0
0
0
0
0
0
0
0
0
0
0
0
0
0
0
0
0
0
0
0
0
0
0
0
0
0
0
0
0
0
0
0
0
0
0
0
0
0
0
0
0
0
0
0
0
0
1.634251666e-07
6.269787973e-08
1.686740643e-08
3.881932897e-09
8.772364963e-10
2.0974834e-10
5.829324597e-11
1.32370507e-11
4.810683364e-12
1.168698457e-12
1.233667615e-12
2.029922805e-12
1.461797404e-11
6.947548136e-12
7.37370194e-13
0
0
0
0
0
0
0
0
0
0
0
0
0
0
0
0
0
0
0
0
0
0
0
0
0
0
0
0
0
0
0
0
0
0
0
0
0
0
0
0
0
0
0
0
0
2.296306614e-08
9.786915976e-09
3.268345344e-09
9.83786524e-10
2.86737518e-10
7.910129434e-11
2.252445304e-11
9.228050573e-12
5.234249414e-12
3.123329346e-12
2.155795834e-12
1.206475132e-12
1.955098898e-12
1.569157118e-11
7.974185814e-12
1.551299267e-12
0
0
0
0
0
0
0
0
0
0
0
0
0
0
0
0
0
0
0
0
0
0
0
0
0
0
0
0
0
0
0
0
0
0
0
0
0
0
0
0
0
0
0
0
4.083151713e-09
1.946948159e-09
7.507682757e-10
2.891517538e-10
1.052353274e-10
4.048943978e-11
1.642669691e-11
6.150410098e-12
3.153245197e-12
2.482355686e-12
1.689308942e-12
1.993797619e-12
1.902879343e-12
2.985588041e-12
1.575677457e-11
6.468163522e-12
8.391454953e-13
0
0
0
0
0
0
0
0
0
0
0
0
0
0
0
0
0
0
0
0
0
0
0
0
0
0
0
0
0
0
0
0
0
0
0
0
0
0
0
0
0
0
0
9.225139468e-10
4.965007171e-10
2.431836788e-10
1.171120927e-10
4.798881872e-11
1.87716622e-11
8.523162758e-12
3.203172135e-12
1.435369451e-12
2.469918553e-12
1.875207077e-12
1.73085714e-12
1.674124799e-12
3.92045364e-12
1.241810073e-11
1.603761497e-11
4.216813224e-12
0
0
0
0
0
0
0
0
0
0
0
0
0
0
0
0
0
0
0
0
0
0
0
0
0
0
0
0
0
0
0
0
0
0
0
0
0
0
0
0
0
0
0
2.913035825e-10
1.677640573e-10
8.893750288e-11
3.67466439e-11
2.038380582e-11
6.298734819e-12
4.246882752e-12
1.542385057e-12
1.097199976e-12
2.514166388e-12
3.071611454e-12
2.262795962e-12
1.515887474e-12
9.192384182e-13
5.62871238e-13
2.067227827e-11
2.34517424e-11
6.604307967e-12
0
0
0
0
0
0
0
0
0
0
0
0
0
0
0
0
0
0
0
0
0
0
0
0
0
0
0
0
0
0
0
0
0
0
0
0
0
0
0
0
0
0
1.053547578e-10
6.656786817e-11
3.682325716e-11
1.986981464e-11
1.01161033e-11
5.245087591e-12
3.288416552e-12
2.037089102e-12
1.366114842e-12
2.561704916e-12
2.921001544e-12
2.670266927e-12
1.627494291e-12
9.52178888e-13
1.045559183e-12
9.815522756e-13
2.212198222e-11
2.474645583e-11
6.43845654e-12
0
0
0
0
0
0
0
0
0
0
0
0
0
0
0
0
0
0
0
0
0
0
0
0
0
0
0
0
0
0
0
0
0
0
0
0
0
0
0
0
0
3.685962231e-11
2.35468301e-11
1.490738956e-11
8.605222819e-12
4.327864059e-12
3.19113887e-12
2.512713967e-12
2.084172826e-12
3.595942274e-13
0
1.952199158e-12
2.495878612e-12
2.089483187e-12
1.801707743e-12
2.740842874e-12
5.397456312e-12
1.349965669e-11
2.068938878e-11
8.145731641e-12
1.081143501e-12
0
0
0
0
0
0
0
0
0
0
0
0
0
0
0
0
0
0
0
0
0
0
0
0
0
0
0
0
0
0
0
0
0
0
0
0
0
0
0
0
1.296399187e-11
1.01642294e-11
6.868644218e-12
3.810978759e-12
2.939798433e-12
2.376778711e-12
2.10222004e-12
1.847109443e-12
1.263404024e-12
0
1.657573346e-12
2.636853263e-12
3.288312595e-12
2.416706768e-12
1.335731149e-12
6.2738003e-13
7.860288851e-14
1.988722552e-11
2.394054065e-11
8.822144248e-12
6.067479336e-13
0
0
0
0
0
0
0
0
0
0
0
0
0
0
0
0
0
0
0
0
0
0
0
0
0
0
0
0
0
0
0
0
0
0
0
0
0
0
0
6.666620795e-12
4.929072769e-12
3.342287201e-12
1.848388788e-12
2.154965184e-12
1.99345479e-12
2.057135958e-12
2.181017104e-12
2.4978836e-12
2.528192375e-12
2.570206865e-12
2.723889104e-12
2.224953615e-12
1.75655545e-12
1.462043936e-12
3.977456122e-13
2.997100981e-13
5.599472689e-14
2.288007044e-11
2.671986888e-11
8.841569195e-12
2.124329335e-14
0
0
0
0
0
0
0
0
0
0
0
0
0
0
0
0
0
0
0
0
0
0
0
0
0
0
0
0
0
0
0
0
0
0
0
0
0
0
3.257079795e-12
2.684069517e-12
2.127989567e-12
2.060457436e-12
2.053622043e-12
2.138341035e-12
2.537403884e-12
2.342790884e-12
2.361586894e-12
2.554260157e-12
2.278677772e-12
1.992461728e-12
1.50711937e-12
1.039812663e-12
0
2.647244092e-14
5.515356547e-13
4.927337824e-12
2.1629741e-11
2.712941846e-11
1.238434139e-11
2.879304685e-12
0
0
0
0
0
0
0
0
0
0
0
0
0
0
0
0
0
0
0
0
0
0
0
0
0
0
0
0
0
0
0
0
0
0
0
0
0
0
2.163144677e-12
2.026166816e-12
1.936644836e-12
1.962820218e-12
2.178436351e-12
2.293745293e-12
2.7341897e-12
2.596149234e-12
2.317673191e-12
2.24222965e-12
1.83747409e-12
1.505156715e-12
1.081417349e-12
8.738786656e-13
7.408931242e-13
1.452435618e-12
4.075925509e-13
5.020323185e-13
2.913159645e-13
2.297751086e-11
2.730267915e-11
1.119917513e-11
1.911735994e-12
0
0
0
0
0
0
0
0
0
0
0
0
0
0
0
0
0
0
0
0
0
0
0
0
0
0
0
0
0
0
0
0
0
0
0
0
0
1.804174029e-12
1.851235157e-12
1.959258464e-12
2.065621863e-12
2.30742335e-12
2.367664598e-12
2.537613275e-12
2.573616634e-12
2.051354221e-12
1.627994032e-12
1.396759495e-12
1.269057982e-12
1.103192675e-12
1.027662238e-12
9.539647752e-13
0
2.070278639e-12
4.730923249e-12
1.092072493e-11
2.686647435e-11
3.500926908e-11
3.248675422e-11
1.184347627e-11
1.192854994e-12
0
0
0
0
0
0
0
0
0
0
0
0
0
0
0
0
0
0
0
0
0
0
0
0
0
0
0
0
0
0
0
0
0
0
0
0
1.792877252e-12
1.977623236e-12
2.009010852e-12
2.017299926e-12
2.197879236e-12
2.243960689e-12
2.242355027e-12
2.326138999e-12
1.843176988e-12
1.402269938e-12
1.2891725e-12
1.154612139e-12
1.147844047e-12
1.168082502e-12
1.461137265e-12
1.628923106e-12
1.601440915e-12
2.413047087e-12
2.562344911e-12
1.392897047e-12
2.566987506e-11
3.202320055e-11
1.572409753e-11
4.598908252e-12
0
0
0
0
0
0
0
0
0
0
0
0
0
0
0
0
0
0
0
0
0
0
0
0
0
0
0
0
0
0
0
0
0
0
0
0
1.909676571e-12
1.986266461e-12
1.935534865e-12
1.772310048e-12
1.766792393e-12
1.751307869e-12
1.726492633e-12
1.888308768e-12
1.486618288e-12
1.157037824e-12
1.144420774e-12
1.014319779e-12
1.072346635e-12
1.038999095e-12
1.17299102e-12
1.215760662e-12
0
1.426165887e-12
2.348181027e-12
5.470766878e-12
1.861497375e-11
2.987835658e-11
3.071744722e-11
1.258191239e-11
2.540856804e-12
0
0
0
0
0
0
0
0
0
0
0
0
0
0
0
0
0
0
0
0
0
0
0
0
0
0
0
0
0
0
0
0
0
0
0
1.538291022e-12
1.601912826e-12
1.388069383e-12
1.176923331e-12
1.075596698e-12
1.114470002e-12
1.131591961e-12
1.337843964e-12
9.880984058e-13
7.329081138e-13
7.505632262e-13
6.660826823e-13
7.214881303e-13
6.319912434e-13
6.513513047e-13
5.950358359e-13
0
8.105600078e-13
1.632630421e-12
1.691176479e-12
1.432405597e-12
2.530283296e-11
3.285137119e-11
1.862525591e-11
7.189174358e-12
2.538105524e-14
0
0
0
0
0
0
0
0
0
0
0
0
0
0
0
0
0
0
0
0
0
0
0
0
0
0
0
0
0
0
0
0
0
0
1.055503361e-12
1.069887147e-12
8.142786286e-13
5.848019106e-13
4.763852117e-13
5.306326231e-13
5.715353965e-13
8.072583705e-13
5.009750031e-13
2.912805044e-13
3.491947976e-13
2.697010976e-13
3.300094144e-13
3.003830434e-13
3.878957837e-13
7.623910835e-13
1.14427033e-12
2.115431776e-13
1.315607857e-12
8.104013545e-13
1.280411534e-12
1.046055814e-12
2.700751773e-11
3.167273163e-11
1.49089385e-11
4.181934205e-12
0
0
0
0
0
0
0
0
0
0
0
0
0
0
0
0
0
0
0
0
0
0
0
0
0
0
0
0
0
0
0
0
0
0
6.111056558e-13
4.802624917e-13
3.193484511e-13
1.575089958e-13
1.643594513e-13
1.22753652e-13
8.567783892e-14
1.690954774e-13
9.27167519e-14
2.420306536e-14
1.214606766e-13
3.516006687e-14
5.174509818e-14
1.142868642e-13
1.765492012e-13
4.908362807e-13
7.386387068e-13
2.69664051e-13
8.745894509e-13
1.428568502e-12
1.178255468e-12
0
2.801404128e-11
4.069209379e-11
3.670845398e-11
1.522733852e-11
2.989464573e-12
0
0
0
0
0
0
0
0
0
0
0
0
0
0
0
0
0
0
0
0
0
0
0
0
0
0
0
0
0
0
0
0
0
2.028613045e-13
1.351444396e-13
5.902921753e-14
0
1.882480057e-14
3.147680917e-14
3.284151618e-15
3.60845309e-14
2.931613913e-15
3.187980777e-15
7.581942614e-14
0
7.155849811e-16
3.941087274e-14
6.091508699e-14
1.855014548e-13
1.090962689e-14
0
5.799350561e-13
1.378339506e-12
1.308294813e-12
1.55255624e-12
1.367746584e-12
2.986065376e-11
3.630585595e-11
1.859586565e-11
6.232134926e-12
3.725613128e-15
0
0
0
0
0
0
0
0
0
0
0
0
0
0
0
0
0
0
0
0
0
0
0
0
0
0
0
0
0
0
0
0
3.641152476e-14
7.356296018e-15
0
3.182899563e-14
1.25415593e-14
6.894030624e-16
0
2.734001525e-14
0
0
5.049715511e-14
0
0
3.969872308e-14
7.796147635e-14
2.358426123e-13
6.678545221e-13
1.301398116e-12
1.315409462e-12
1.814485506e-12
1.949191511e-12
1.494188931e-12
0
2.870961567e-11
4.12909734e-11
3.799627326e-11
1.599868073e-11
3.94026461e-12
0
0
0
0
0
0
0
0
0
0
0
0
0
0
0
0
0
0
0
0
0
0
0
0
0
0
0
0
0
0
0
0
0
0
0
5.09732148e-15
2.587865106e-14
1.056566941e-15
0
2.722492196e-14
0
0
2.646948022e-14
0
0
3.548912046e-14
6.687724345e-14
2.143412462e-13
6.97494757e-13
1.363755391e-12
2.756190009e-13
1.894349426e-12
2.503849274e-12
2.565918326e-12
3.268044989e-12
3.535609713e-12
3.048265461e-11
3.664120675e-11
1.946561362e-11
7.134624359e-12
1.129878403e-13
0
0
0
0
0
0
0
0
0
0
0
0
0
0
0
0
0
0
0
0
0
0
0
0
0
0
0
0
0
0
0
1.941641943e-17
0
1.92059951e-14
9.406869655e-15
2.879118368e-14
1.489897876e-15
1.203742928e-14
2.021282903e-14
0
0
2.004791677e-15
0
3.504106728e-15
1.187620856e-14
0
3.033694241e-14
2.281681927e-13
2.029965889e-13
2.006331231e-13
7.059433793e-13
1.912049315e-12
2.267713691e-12
1.80301123e-12
2.573694477e-13
2.922032142e-11
4.186508626e-11
3.873535056e-11
1.705888383e-11
4.737866562e-12
0
0
0
0
0
0
0
0
0
0
0
0
0
0
0
0
0
0
0
0
0
0
0
0
0
0
0
0
0
0
0
0
2.409888879e-14
1.707820655e-14
2.72788006e-14
1.618287194e-15
0
2.806302544e-14
0
0
0
2.462938017e-15
0
1.205288489e-15
2.396141119e-14
2.945568346e-14
1.382447288e-13
3.257186796e-13
7.3174302e-13
1.367378537e-12
1.304463933e-12
1.721607014e-12
1.727289955e-12
9.776052426e-13
0
1.936933662e-11
3.433053374e-11
3.800774788e-11
2.053325901e-11
8.073646288e-12
7.187642598e-13
0
0
0
0
0
0
0
0
0
0
0
0
0
0
0
0
0
0
0
0
0
0
0
0
0
0
0
0
0
0
1.901989303e-14
1.418105035e-14
4.384361923e-15
0
0
0
2.696758699e-14
0
0
0
1.027367864e-15
0
5.369000102e-16
4.644754035e-14
6.230849107e-14
1.982494487e-13
4.057836635e-13
8.429702025e-13
1.593103006e-12
1.31131532e-12
1.586686329e-12
1.689473394e-12
1.661397978e-12
1.531922926e-12
1.10337082e-12
3.029341052e-11
4.280594357e-11
3.951219156e-11
1.775934865e-11
5.183405354e-12
0
0
0
0
0
0
0
0
0
0
0
0
0
0
0
0
0
0
0
0
0
0
0
0
0
0
0
0
0
0
6.544050949e-15
2.083572973e-15
0
0
0
1.074721356e-14
0
0
0
0
1.037748008e-15
0
4.556027044e-15
4.611141909e-14
9.73855131e-14
1.583992374e-13
2.752615866e-13
5.728903685e-13
1.117832043e-12
8.312943202e-13
8.984697732e-13
1.387463261e-12
1.479536007e-12
1.002783759e-12
0
2.486995205e-11
3.847431878e-11
3.979445095e-11
2.109522512e-11
8.243128086e-12
8.271433858e-13
0
0
0
0
0
0
0
0
0
0
0
0
0
0
0
0
0
0
0
0
0
0
0
0
0
0
0
0
0
1.506938955e-15
0
0
0
0
1.278429465e-14
0
0
0
0
1.332826969e-15
0
6.107393853e-15
4.36447141e-14
7.861464727e-14
8.437411805e-14
8.671725368e-14
1.390215182e-13
1.856634357e-13
1.883984488e-13
6.566551316e-13
1.379113286e-12
1.639970997e-12
1.315970674e-12
1.113928108e-12
1.416594982e-12
3.061163513e-11
4.181764779e-11
3.568772437e-11
1.5611357e-11
3.974373491e-12
0
0
0
0
0
0
0
0
0
0
0
0
0
0
0
0
0
0
0
0
0
0
0
0
0
0
0
0
0
0
0
0
0
0
0
0
0
0
0
1.288268464e-15
0
2.731207557e-14
1.001822166e-13
1.7633276e-13
2.42082698e-13
3.534942213e-13
4.708019083e-13
7.378992048e-13
1.17888651e-12
1.252456595e-12
1.749870817e-12
1.997322315e-12
2.063266885e-12
1.692064125e-12
0
2.78462016e-11
4.127761313e-11
4.034127475e-11
1.993591982e-11
7.003691912e-12
3.446254427e-13
0
0
0
0
0
0
0
0
0
0
0
0
0
0
0
0
0
0
0
0
0
0
0
0
0
0
0
0
0
0
0
0
0
0
0
0
3.768740435e-16
1.080949483e-15
1.360884837e-15
0
7.082670044e-14
1.743682816e-13
2.857478789e-13
3.994234701e-13
5.785306138e-13
7.802968257e-13
1.18927349e-12
1.87449054e-12
1.606581552e-12
1.656850298e-12
2.139147286e-12
2.266357474e-12
1.791824642e-12
1.321597579e-12
1.366476977e-12
2.949430026e-11
3.694421499e-11
2.212972838e-11
1.020778842e-11
2.215886915e-12
0
0
0
0
0
0
0
0
0
0
0
0
0
0
0
0
0
0
0
0
0
0
0
0
0
0
0
0
0
0
0
0
0
0
0
0
0
1.406966369e-15
1.604382298e-15
3.503775186e-15
7.91569122e-14
1.741901918e-13
2.666060223e-13
3.453632542e-13
4.630663414e-13
5.674123935e-13
8.276860043e-13
1.167930704e-12
1.080427863e-12
1.123266137e-12
1.558806898e-12
1.562071075e-12
8.465353058e-13
9.900803469e-13
0
2.87136995e-11
4.130982505e-11
3.890182837e-11
1.886091361e-11
6.673341819e-12
4.233963608e-13
0
0
0
0
0
0
0
0
0
0
0
0
0
0
0
0
0
0
0
0
0
0
0
0
0
0
0
0
0
0
0
0
0
0
0
0
1.450045812e-15
1.555449553e-15
7.139123084e-15
6.442645333e-14
1.255905003e-13
1.753178622e-13
2.022390543e-13
2.302528234e-13
1.996212859e-13
2.273226287e-13
2.896483656e-13
3.488946676e-13
5.100040751e-13
1.031214471e-12
1.274595038e-12
1.361480906e-12
1.090406902e-12
0
2.185006268e-11
3.54285194e-11
3.822905306e-11
2.167320611e-11
9.831558484e-12
2.209623966e-12
0
0
0
0
0
0
0
0
0
0
0
0
0
0
0
0
0
0
0
0
0
0
0
0
0
0
0
3.798877598e-15
1.913994811e-15
0
0
0
0
0
1.887765881e-16
2.57619935e-16
1.700335115e-15
2.270593351e-15
6.005389662e-15
4.027988202e-14
7.124227515e-14
8.874633822e-14
8.310137875e-14
7.777293232e-14
7.021882621e-15
0
1.714572167e-15
5.226711786e-14
2.115340285e-13