/*--------------------------------*- C++ -*----------------------------------*\
  =========                 |
  \\      /  F ield         | OpenFOAM: The Open Source CFD Toolbox
   \\    /   O peration     | Website:  https://openfoam.org
    \\  /    A nd           | Version:  10
     \\/     M anipulation  |
\*---------------------------------------------------------------------------*/
FoamFile
{
    format      ascii;
    class       volScalarField;
    location    "0.0250188088";
    object      C2H6;
}
// * * * * * * * * * * * * * * * * * * * * * * * * * * * * * * * * * * * * * //

dimensions      [0 0 0 0 0 0 0];

internalField   nonuniform List<scalar> 
5170
(
3.002034735e-10
2.997078129e-10
2.963691962e-10
2.725981042e-10
2.041185747e-11
5.926298462e-10
5.910863701e-10
5.839956515e-10
5.47715481e-10
3.41091755e-10
8.823614129e-10
8.797925149e-10
8.694571381e-10
8.261385654e-10
6.554914443e-10
1.168551778e-09
1.165084067e-09
1.152361525e-09
1.106346159e-09
9.706069272e-10
1.450761132e-09
1.446557742e-09
1.432373167e-09
1.387130898e-09
1.28593742e-09
1.728967308e-09
1.724323975e-09
1.709639431e-09
1.668203426e-09
1.601165746e-09
2.00353154e-09
1.998682893e-09
1.984420055e-09
1.949800088e-09
1.916417261e-09
2.275083351e-09
2.270347943e-09
2.257342339e-09
2.232066078e-09
2.231999369e-09
2.544107203e-09
2.539779275e-09
2.528970561e-09
2.515336652e-09
2.548214003e-09
2.811092064e-09
2.807369222e-09
2.799413479e-09
2.799994193e-09
2.865361109e-09
3.076318586e-09
3.073392689e-09
3.068793211e-09
3.086212557e-09
3.183476465e-09
3.339825921e-09
3.337958391e-09
3.337805031e-09
3.373899537e-09
3.502237294e-09
3.601685551e-09
3.601153431e-09
3.606792565e-09
3.66304863e-09
3.821315212e-09
3.862012988e-09
3.863092313e-09
3.875714835e-09
3.953644195e-09
4.140412941e-09
4.120872359e-09
4.123885973e-09
4.144577984e-09
4.245532957e-09
4.459165959e-09
4.378253476e-09
4.383568633e-09
4.413798113e-09
4.538763796e-09
4.776821509e-09
4.634203396e-09
4.642239031e-09
4.683128456e-09
4.832778047e-09
5.093679482e-09
4.88880574e-09
4.900063459e-09
4.953434421e-09
5.128142881e-09
5.409461549e-09
5.142674128e-09
5.159324472e-09
5.239224405e-09
5.527966594e-09
6.141354525e-09
5.551157947e-09
6.288874525e-09
1.248641958e-08
5.514151672e-08
2.452954807e-07
6.047610084e-28
0
1.38855286e-29
1.364386831e-29
1.359686796e-29
2.476697185e-28
0
0
0
1.570981679e-29
0
5.828610162e-28
0
5.737631069e-29
0
7.220901714e-25
0
0
0
0
4.215028465e-21
3.735728375e-22
5.384445252e-23
0
0
0
0
1.27691097e-19
1.152043595e-17
9.820915085e-17
1.932280189e-19
0
0
1.603895788e-19
4.131637211e-18
0
0
5.239943484e-19
0
0
7.250918253e-16
1.212166573e-16
0
0
0
0
0
0
0
0
0
0
0
0
0
0
0
0
0
0
0
0
0
0
0
0
0
0
0
0
0
0
0
0
0
0
0
0
0
0
0
0
0
0
0
0
0
0
0
0
1.441197533e-08
0
0
0
0
3.660691305e-06
1.606892042e-07
2.89979848e-08
2.237555048e-10
1.022609222e-12
1.155981005e-08
5.193590376e-08
7.205205497e-07
1.067248057e-05
0.0001417461947
3.970961366e-08
2.363474242e-07
2.846975735e-06
3.028419322e-05
0.0002349290114
1.228203775e-07
7.2449094e-07
7.340298203e-06
5.978109962e-05
0.0003183787734
3.213379464e-07
1.760162771e-06
1.515677218e-05
9.827874137e-05
0.0003879099245
7.504219861e-07
3.804974086e-06
2.800551474e-05
0.0001437433961
0.0004411399921
1.610949181e-06
7.552525051e-06
4.686431375e-05
0.0001919887141
0.0004857790954
3.233641617e-06
1.391599947e-05
7.209124564e-05
0.000240699567
0.0005287423088
6.134054529e-06
2.397109275e-05
0.0001034195495
0.0002891233432
0.0005703529252
1.115790876e-05
3.913852898e-05
0.0001402327463
0.0003359952042
0.0006074105269
1.959705164e-05
6.071580768e-05
0.0001814965835
0.0003817170615
0.0006421968414
3.346815152e-05
9.018790091e-05
0.0002265093756
0.0004268888643
0.0006760795772
5.641812806e-05
0.0001280705425
0.0002739579113
0.0004720001452
0.0007096226033
9.316203599e-05
0.0001742259581
0.000323742803
0.0005169860238
0.0007422189366
0.0001420917574
0.0002270779221
0.0003754503235
0.0005614562172
0.0007732370805
0.0002068934187
0.0002884665762
0.000430511725
0.000606804323
0.0008049857695
0.0002830861411
0.0003573955925
0.0004900804301
0.0006554761465
0.0008407048067
0.0003702108961
0.000436249463
0.0005576915874
0.0007108803389
0.0008830119996
0.0004708254666
0.0005278299283
0.0006367405861
0.0007778586779
0.0009391552037
0.0005801237954
0.0006301340353
0.0007295527565
0.0008628628792
0.001018323783
0.0006995455763
0.0007445222355
0.0008353351493
0.0009581868462
0.001101662903
0.0008223301344
0.0008582953116
0.0009299272983
0.001023549107
0.001126837679
0.0009102803104
0.0009293392896
0.000966801146
0.001013697718
0.001061251328
0.0008988268456
0.0009045359488
0.0009149337257
0.0009258878287
0.0009330704995
0.0008027830587
0.0008019893666
0.0007991231237
0.0007927059845
0.0007811809002
0.0006691909213
0.0006662895038
0.0006592798406
0.0006479173769
0.0006320490928
0.0005340726328
0.0005311050327
0.0005242903005
0.0005137147247
0.0004995293326
0.0004231604211
0.0004207399642
0.0004151764762
0.000406638033
0.0003953618227
0.0003332695861
0.000331407283
0.0003271506473
0.0003206573001
0.000312138974
0.0002615578191
0.0002601698492
0.0002570079724
0.0002521966301
0.0002458988142
0.0002042788754
0.0002032636901
0.0002009534245
0.0001974392547
0.0001928397573
0.0001581827145
0.0001574517371
0.0001557867455
0.0001532512099
0.0001499289376
0.0001208328103
0.0001203152671
0.000119132848
0.0001173280634
0.0001149591765
9.053569492e-05
9.017660791e-05
8.935223422e-05
8.808985706e-05
8.642952004e-05
6.618226881e-05
6.593952879e-05
6.537844343e-05
6.451577559e-05
6.337870678e-05
4.702781435e-05
4.686885288e-05
4.649829976e-05
4.592587112e-05
4.516966799e-05
3.245256994e-05
3.235213535e-05
3.211558148e-05
3.174818087e-05
3.126169691e-05
2.180004883e-05
2.173880021e-05
2.159286502e-05
2.136486493e-05
2.106222668e-05
1.434324791e-05
1.43070379e-05
1.42196732e-05
1.408233592e-05
1.389957631e-05
9.340502505e-06
9.319511611e-06
9.268273095e-06
9.187255693e-06
9.079167014e-06
6.112423421e-06
6.100268664e-06
6.070339992e-06
6.022803667e-06
5.959232216e-06
4.095834024e-06
4.088601043e-06
4.070763215e-06
4.042384402e-06
4.004362058e-06
2.86327109e-06
2.858710049e-06
2.847550529e-06
2.829839411e-06
2.806088005e-06
2.114690127e-06
2.111574594e-06
2.104079971e-06
2.092261157e-06
2.076414559e-06
1.653737932e-06
1.65143144e-06
1.645995755e-06
1.637495756e-06
1.626110421e-06
1.359598596e-06
1.357777681e-06
1.353566525e-06
1.34703451e-06
1.338296262e-06
1.161651726e-06
1.160151041e-06
1.15672965e-06
1.151456408e-06
1.144409926e-06
1.020137269e-06
1.018867091e-06
1.015999662e-06
1.011599993e-06
1.005725462e-06
9.130883773e-07
9.119954874e-07
9.09544234e-07
9.057943661e-07
9.007899322e-07
8.283219033e-07
8.273712398e-07
8.252482075e-07
8.220068814e-07
8.176823122e-07
7.588454094e-07
7.580120077e-07
7.561561322e-07
7.533264301e-07
7.495514807e-07
7.003197863e-07
6.995821523e-07
6.979460561e-07
6.954551655e-07
6.921330337e-07
6.508468097e-07
6.501938469e-07
6.487457097e-07
6.465416698e-07
6.436016095e-07
6.08253567e-07
6.07671064e-07
6.063809493e-07
6.044185259e-07
6.018005768e-07
5.713301087e-07
5.708072383e-07
5.696506298e-07
5.678922064e-07
5.655462247e-07
5.392066561e-07
5.387339748e-07
5.376896477e-07
5.36102736e-07
5.339854362e-07
5.112614775e-07
5.108302773e-07
5.098787825e-07
5.084337511e-07
5.065057012e-07
4.870347551e-07
4.866366683e-07
4.857594724e-07
4.844281826e-07
4.826520254e-07
4.660851504e-07
4.657123076e-07
4.648920091e-07
4.636480966e-07
4.619888399e-07
4.477993315e-07
4.474452519e-07
4.466674318e-07
4.454889552e-07
4.439174472e-07
4.312546415e-07
4.309155299e-07
4.30171446e-07
4.290448375e-07
4.275428766e-07
4.152654499e-07
4.149409156e-07
4.142290827e-07
4.13151505e-07
4.117150899e-07
3.986572023e-07
3.983502121e-07
3.976764842e-07
3.966562842e-07
3.952962455e-07
3.80691075e-07
3.804066114e-07
3.79781406e-07
3.788338834e-07
3.775703976e-07
3.61329516e-07
3.610708337e-07
3.605010646e-07
3.596363716e-07
3.584825702e-07
3.4114179e-07
3.40910813e-07
3.404009412e-07
3.396261299e-07
3.385917174e-07
3.21156797e-07
3.209529373e-07
3.205021544e-07
3.19816629e-07
3.189022769e-07
3.025250538e-07
3.023454383e-07
3.019476781e-07
3.013418849e-07
3.005317633e-07
2.858902538e-07
2.857269107e-07
2.853654415e-07
2.848152269e-07
2.84079887e-07
2.713841815e-07
2.712327944e-07
2.708981218e-07
2.703888576e-07
2.697081352e-07
2.596634934e-07
2.595210653e-07
2.592065093e-07
2.587281539e-07
2.58088731e-07
0.000492977076
0.0005942565769
0.0006741580309
0.0007125986934
0.0007292718275
0.0007469111421
0.0007732371318
0.0008000257941
0.00081992607
0.0008399084874
0.0008607620079
0.0008823913597
0.0009029511829
0.0009215648568
0.0009424827912
0.0009689958014
0.001002693232
0.001051598731
0.001127981465
0.00120218276
0.001194263438
0.001088760303
0.0009338913563
0.0007705326209
0.0006195476497
0.0004886678538
0.0003868852918
0.0003057750954
0.0002412053358
0.000189418132
0.0001474643596
0.0001132104995
8.52133689e-05
6.255499034e-05
4.462964654e-05
3.092025938e-05
2.08539425e-05
1.377634272e-05
9.007617824e-06
5.917646859e-06
3.979465721e-06
2.790251297e-06
2.065493791e-06
1.61795464e-06
1.331814918e-06
1.139043079e-06
1.001168116e-06
8.968591133e-07
8.142565187e-07
7.465427207e-07
6.894716632e-07
6.412383758e-07
5.996893599e-07
5.636486403e-07
5.322678547e-07
5.049370378e-07
4.812024775e-07
4.606304125e-07
4.426271912e-07
4.263071999e-07
4.105327847e-07
3.941782371e-07
3.765349172e-07
3.575403131e-07
3.377503441e-07
3.181596065e-07
2.998749521e-07
2.834836763e-07
2.691547102e-07
2.575684535e-07
0.001099641369
8.188657399e-05
2.396746864e-06
5.864015667e-08
1.109863289e-09
0.001218943139
0.001173191343
6.780984971e-05
2.038480248e-06
4.660681899e-08
0.001304874753
0.001917707947
0.0001742764815
9.025563962e-06
2.732646689e-07
0.001270793525
0.001778771948
0.0002210497227
1.717745544e-05
8.184240558e-07
0.001213034951
0.001652424192
0.0003595997306
3.637790272e-05
2.602028002e-06
0.00117894616
0.001618088519
0.0007339366855
9.101817344e-05
8.243469297e-06
0.00117475315
0.001639158757
0.001114087651
0.0001594065568
1.778107369e-05
0.001171604949
0.001619849147
0.001351575045
0.0002179107222
2.840276376e-05
0.001157760725
0.001560519397
0.001393535543
0.0002599390706
3.897699084e-05
0.001150795498
0.001528001084
0.001485808045
0.0003552902379
5.840651431e-05
0.001148216888
0.001508188881
0.001521026641
0.0004753224227
8.521274313e-05
0.001148903804
0.001481941216
0.001507838367
0.0006170385492
0.000118971328
0.001148097112
0.00144388491
0.001482040354
0.0007466281158
0.0001548241571
0.001145570919
0.001415008893
0.001471655383
0.0008763075773
0.0002003994713
0.001149494039
0.001404153142
0.001473469684
0.0009826800724
0.0002588677202
0.00116150308
0.001404391035
0.001479555647
0.001068255737
0.0003289464913
0.001181887096
0.001411889604
0.001488082627
0.001132877201
0.0003972012068
0.001219283069
0.00143391029
0.001502115826
0.001131998235
0.0003951901956
0.001289265592
0.001491582017
0.001514168932
0.001024500689
0.0003092962829
0.001348719965
0.001531798995
0.001565697433
0.001161772247
0.0003141949578
0.00129255178
0.001395751249
0.001412282974
0.001292645155
0.001024933751
0.00113040795
0.001146891702
0.001098781032
0.0009794932616
0.000803452591
0.0009382439251
0.0009092260041
0.0008404018072
0.0007380263918
0.0006159291671
0.000758740727
0.0007172961971
0.0006540387754
0.0005751053877
0.0004890125532
0.0006047848214
0.0005666979379
0.0005156999822
0.000456533394
0.0003942047368
0.0004756101457
0.00044513009
0.0004065277705
0.0003631117049
0.0003179975965
0.0003766870554
0.0003535307882
0.0003247390407
0.0002926531299
0.0002593539098
0.0002981270484
0.0002809067266
0.0002595911583
0.0002358393956
0.0002110868024
0.0002355899027
0.0002229108216
0.0002071717525
0.0001895552509
0.0001710739182
0.0001853648849
0.0001761074362
0.000164525029
0.0001514659636
0.0001376553698
0.0001445971572
0.0001379119667
0.0001294434748
0.0001198037051
0.0001095171521
0.0001112347949
0.0001064796159
0.0001003528395
9.329838974e-05
8.569815039e-05
8.389815463e-05
8.058490489e-05
7.622211567e-05
7.113271382e-05
6.559532189e-05
6.171752903e-05
5.947112567e-05
5.643306814e-05
5.28372807e-05
4.888582065e-05
4.412478213e-05
4.265185625e-05
4.059574214e-05
3.812335168e-05
3.537879737e-05
3.063454282e-05
2.970379359e-05
2.835651836e-05
2.670882619e-05
2.48608195e-05
2.070296504e-05
2.013575862e-05
1.928132009e-05
1.821784832e-05
1.701262907e-05
1.370170215e-05
1.33663779e-05
1.283999915e-05
1.217339013e-05
1.14101888e-05
8.972288403e-06
8.777529051e-06
8.459950088e-06
8.0514128e-06
7.579220522e-06
5.900342385e-06
5.786801258e-06
5.596562181e-06
5.348928111e-06
5.060419772e-06
3.969278847e-06
3.900817433e-06
3.785403509e-06
3.634395559e-06
3.457514283e-06
2.782357355e-06
2.738309482e-06
2.665686621e-06
2.571039564e-06
2.459984228e-06
2.058192632e-06
2.027401115e-06
1.978988789e-06
1.916711331e-06
1.843802242e-06
1.610895792e-06
1.587605123e-06
1.553065751e-06
1.509459498e-06
1.458678912e-06
1.325085077e-06
1.306391368e-06
1.280127913e-06
1.247606799e-06
1.209978395e-06
1.132781619e-06
1.11719425e-06
1.096191954e-06
1.070606319e-06
1.041176108e-06
9.95452855e-07
9.821538292e-07
9.647511064e-07
9.438048166e-07
9.198196307e-07
8.917020046e-07
8.801937769e-07
8.654269242e-07
8.478005032e-07
8.276793017e-07
8.096283933e-07
7.995744495e-07
7.868425134e-07
7.717304539e-07
7.545137796e-07
7.423946328e-07
7.335474311e-07
7.224462905e-07
7.093210724e-07
6.943873193e-07
6.857460444e-07
6.779117986e-07
6.681518187e-07
6.566467231e-07
6.435677826e-07
6.378921749e-07
6.30922477e-07
6.22282968e-07
6.121191322e-07
6.00570071e-07
5.966703685e-07
5.90434959e-07
5.827389004e-07
5.736998713e-07
5.634315228e-07
5.609108736e-07
5.552989946e-07
5.483994873e-07
5.403078466e-07
5.311173127e-07
5.297685851e-07
5.246826614e-07
5.184534332e-07
5.111584092e-07
5.028742602e-07
5.026345243e-07
4.979841699e-07
4.923113346e-07
4.856787385e-07
4.781495189e-07
4.790548989e-07
4.747534424e-07
4.695304897e-07
4.634365158e-07
4.565235859e-07
4.585980253e-07
4.54564141e-07
4.496918977e-07
4.440218165e-07
4.375972144e-07
4.406790748e-07
4.368461092e-07
4.322409669e-07
4.268966356e-07
4.208493618e-07
4.244295043e-07
4.20758453e-07
4.163652854e-07
4.112777192e-07
4.055280643e-07
4.087330226e-07
4.052212157e-07
4.010237702e-07
3.961669495e-07
3.906814664e-07
3.924831193e-07
3.891631596e-07
3.85186822e-07
3.805811059e-07
3.753768342e-07
3.749791481e-07
3.719023023e-07
3.681971276e-07
3.638889993e-07
3.590096449e-07
3.561427603e-07
3.533448218e-07
3.4994804e-07
3.459833803e-07
3.414830675e-07
3.365192734e-07
3.340215062e-07
3.309648512e-07
3.273818331e-07
3.233062005e-07
3.170853782e-07
3.148806948e-07
3.121648411e-07
3.089709275e-07
3.053221915e-07
2.989297296e-07
2.96977181e-07
2.945604596e-07
2.917018881e-07
2.884280726e-07
2.826224752e-07
2.808496267e-07
2.786515538e-07
2.76051609e-07
2.730716646e-07
2.683485444e-07
2.66699257e-07
2.646670279e-07
2.622717827e-07
2.595322047e-07
2.568060697e-07
2.552554788e-07
2.533537659e-07
2.511206052e-07
2.485761493e-07
4.984084017e-10
2.77263627e-09
5.579491536e-10
1.717574443e-10
9.671449905e-11
7.452591853e-11
6.639642463e-11
6.334034773e-11
6.22364032e-11
6.185822056e-11
6.172987793e-11
6.167501006e-11
6.164014688e-11
6.161298397e-11
6.159470517e-11
6.159409028e-11
6.157871753e-11
6.154873873e-11
6.153478793e-11
6.152608276e-11
6.151765984e-11
6.150897478e-11
6.150030353e-11
6.149201927e-11
6.148429059e-11
6.147717805e-11
6.147067997e-11
6.146475787e-11
6.145925695e-11
6.145411665e-11
6.144937518e-11
6.144503908e-11
6.144102745e-11
6.143730841e-11
6.143383309e-11
6.143067478e-11
6.142787509e-11
6.142531373e-11
6.142296329e-11
6.142082967e-11
6.141888027e-11
6.14170574e-11
6.141534895e-11
6.141366993e-11
6.141215808e-11
6.141100663e-11
6.141012412e-11
6.140942097e-11
6.140877224e-11
6.140828764e-11
6.140787291e-11
6.1407611e-11
6.140736688e-11
6.140707436e-11
6.140474584e-11
6.138501709e-11
6.125585401e-11
6.064559726e-11
5.848496259e-11
5.566444546e-11
1.097318872e-08
2.119555309e-08
2.63846738e-09
5.203212822e-10
2.365503161e-10
1.707722239e-10
1.486619996e-10
1.397393039e-10
1.359494906e-10
1.343490792e-10
1.336861616e-10
1.333956389e-10
1.332444862e-10
1.33139919e-10
1.330593119e-10
1.330118876e-10
1.329607779e-10
1.329031014e-10
1.328758027e-10
1.328567713e-10
1.328367075e-10
1.328139188e-10
1.327912181e-10
1.327704205e-10
1.327516045e-10
1.327348283e-10
1.327196769e-10
1.327055915e-10
1.326925398e-10
1.32681373e-10
1.32672354e-10
1.326648922e-10
1.326579422e-10
1.326513548e-10
1.326455498e-10
1.326411773e-10
1.326385143e-10
1.32635354e-10
1.32631975e-10
1.326297749e-10
1.326288358e-10
1.326280025e-10
1.326271751e-10
1.326267025e-10
1.326259072e-10
1.326256973e-10
1.326260536e-10
1.326272917e-10
1.326276607e-10
1.326293539e-10
1.32630584e-10
1.326328206e-10
1.326343441e-10
1.326360473e-10
1.326334151e-10
1.326098891e-10
1.324936916e-10
1.321198926e-10
1.315179327e-10
1.313243472e-10
5.502652661e-08
4.454857075e-08
7.54400621e-09
1.381135179e-09
5.010907655e-10
3.075437878e-10
2.438573375e-10
2.165795883e-10
2.034753242e-10
1.971632254e-10
1.942510317e-10
1.929694466e-10
1.924051089e-10
1.921187103e-10
1.919303344e-10
1.917904943e-10
1.916988555e-10
1.916536385e-10
1.916338028e-10
1.916142916e-10
1.915859299e-10
1.91549756e-10
1.915113418e-10
1.914751058e-10
1.914424549e-10
1.914130915e-10
1.913870077e-10
1.913642856e-10
1.913444499e-10
1.91327079e-10
1.91312275e-10
1.912999987e-10
1.912898046e-10
1.912821564e-10
1.91275872e-10
1.912712914e-10
1.912691212e-10
1.912668518e-10
1.912646018e-10
1.912635116e-10
1.91263992e-10
1.912647423e-10
1.912662861e-10
1.912693607e-10
1.912727406e-10
1.91276526e-10
1.91280555e-10
1.912857738e-10
1.91289909e-10
1.912960883e-10
1.913016643e-10
1.913088097e-10
1.913147681e-10
1.913224446e-10
1.913265593e-10
1.913288208e-10
1.913331891e-10
1.914660264e-10
1.923075352e-10
1.935671205e-10
1.510426653e-07
1.590980826e-07
5.936366926e-08
8.718323106e-09
2.040150755e-09
8.418295259e-10
4.959285707e-10
3.551344703e-10
2.885346347e-10
2.562227824e-10
2.410480253e-10
2.343678888e-10
2.316409654e-10
2.305774037e-10
2.301316158e-10
2.298910823e-10
2.298062908e-10
2.298480822e-10
2.298935072e-10
2.299176169e-10
2.299161245e-10
2.298972278e-10
2.298709805e-10
2.298441082e-10
2.298196964e-10
2.297984123e-10
2.297800059e-10
2.297645663e-10
2.297517925e-10
2.297413982e-10
2.297332756e-10
2.297273733e-10
2.297234966e-10
2.297220055e-10
2.297219485e-10
2.297235348e-10
2.297272181e-10
2.297309056e-10
2.29734702e-10
2.297392561e-10
2.297447762e-10
2.297506826e-10
2.297572992e-10
2.297650608e-10
2.297734163e-10
2.297821986e-10
2.297909771e-10
2.298005546e-10
2.29809339e-10
2.29819768e-10
2.298298717e-10
2.298413431e-10
2.298513804e-10
2.298642136e-10
2.298774407e-10
2.299085531e-10
2.300083965e-10
2.304073644e-10
2.316196934e-10
2.329827734e-10
2.449108172e-07
3.281757923e-07
3.531096737e-07
7.807630415e-08
1.306879472e-08
3.6534235e-09
1.540567581e-09
8.168444375e-10
5.056692042e-10
3.620835297e-10
2.963284482e-10
2.676869022e-10
2.561319641e-10
2.518385934e-10
2.503570781e-10
2.498406367e-10
2.497661725e-10
2.499284209e-10
2.500752516e-10
2.501747848e-10
2.502284633e-10
2.502516575e-10
2.502595572e-10
2.502617223e-10
2.50262779e-10
2.502643224e-10
2.50266678e-10
2.502700607e-10
2.502744269e-10
2.502797283e-10
2.502859709e-10
2.502930688e-10
2.503010323e-10
2.503101172e-10
2.503198149e-10
2.503302417e-10
2.503415383e-10
2.503526397e-10
2.503635634e-10
2.503746917e-10
2.503861031e-10
2.503974684e-10
2.504090368e-10
2.50420994e-10
2.504331414e-10
2.504454604e-10
2.504576952e-10
2.504700954e-10
2.504819718e-10
2.504946661e-10
2.505071766e-10
2.505204554e-10
2.505328826e-10
2.505478699e-10
2.505664681e-10
2.50609293e-10
2.507313094e-10
2.511138327e-10
2.520271188e-10
2.529238871e-10
4.575631956e-07
3.869939615e-07
7.492684644e-07
4.287058052e-07
7.41805624e-08
1.48370883e-08
4.77120539e-09
2.04358151e-09
1.021133707e-09
5.825610291e-10
3.901449463e-10
3.084913803e-10
2.759289821e-10
2.639371336e-10
2.598972822e-10
2.586396592e-10
2.584409579e-10
2.586718268e-10
2.589064823e-10
2.590813323e-10
2.591935934e-10
2.592619982e-10
2.593058753e-10
2.593379162e-10
2.593646351e-10
2.593885461e-10
2.594108149e-10
2.594320126e-10
2.594523456e-10
2.594719859e-10
2.594911039e-10
2.595097274e-10
2.595279602e-10
2.595459872e-10
2.595636612e-10
2.595810731e-10
2.595982825e-10
2.596149496e-10
2.596311237e-10
2.596469917e-10
2.596625997e-10
2.596777731e-10
2.596926715e-10
2.597073308e-10
2.597216653e-10
2.597358036e-10
2.597497227e-10
2.597634771e-10
2.597767388e-10
2.59790053e-10
2.598030438e-10
2.598163024e-10
2.598291966e-10
2.598441244e-10
2.598639046e-10
2.599047705e-10
2.600060872e-10
2.602685782e-10
2.607889675e-10
2.612487911e-10
1.102925887e-06
3.260956227e-07
9.344792308e-07
1.115584222e-06
3.759628812e-07
6.027923241e-08
1.415312409e-08
4.971952019e-09
2.139250486e-09
1.031642425e-09
5.684545489e-10
3.770486743e-10
3.018592151e-10
2.743645123e-10
2.651150162e-10
2.622610902e-10
2.616591824e-10
2.618501615e-10
2.621287571e-10
2.623606288e-10
2.625235445e-10
2.626322242e-10
2.627074108e-10
2.627642572e-10
2.628112037e-10
2.628522261e-10
2.628892685e-10
2.629232866e-10
2.629548673e-10
2.629844399e-10
2.63012282e-10
2.63038609e-10
2.630636261e-10
2.630875006e-10
2.631102991e-10
2.631321406e-10
2.631531069e-10
2.631731778e-10
2.631924279e-10
2.632109638e-10
2.632288446e-10
2.63246033e-10
2.632626331e-10
2.632786669e-10
2.632941124e-10
2.633090563e-10
2.633235264e-10
2.633376127e-10
2.633512137e-10
2.633644894e-10
2.63377335e-10
2.633901224e-10
2.634028238e-10
2.634172689e-10
2.634367295e-10
2.634727456e-10
2.63549213e-10
2.637117088e-10
2.639806839e-10
2.641925222e-10
2.144085487e-06
2.362959185e-07
8.563119734e-07
1.634961031e-06
1.221974839e-06
2.586453555e-07
4.448458268e-08
1.231028843e-08
4.566630585e-09
1.940436389e-09
9.129541803e-10
5.032123086e-10
3.457587014e-10
2.889863523e-10
2.700347833e-10
2.642099821e-10
2.62789046e-10
2.6280183e-10
2.630705739e-10
2.633351077e-10
2.635368866e-10
2.636796115e-10
2.637816815e-10
2.638592215e-10
2.639222776e-10
2.639762422e-10
2.640239484e-10
2.640669397e-10
2.641061781e-10
2.641423284e-10
2.641758536e-10
2.642071206e-10
2.642364221e-10
2.64263988e-10
2.64289996e-10
2.643146046e-10
2.643379449e-10
2.643601096e-10
2.643811993e-10
2.644013104e-10
2.644205207e-10
2.644388638e-10
2.644564189e-10
2.644732411e-10
2.644893632e-10
2.645048342e-10
2.645196674e-10
2.645339376e-10
2.645476578e-10
2.645609071e-10
2.645737116e-10
2.645863452e-10
2.645991224e-10
2.646136932e-10
2.646334516e-10
2.64667144e-10
2.647292172e-10
2.648386528e-10
2.649906882e-10
2.650928468e-10
3.566876438e-06
2.700775955e-07
6.440375651e-07
1.858122784e-06
2.31271149e-06
1.009702567e-06
1.5860016e-07
3.219041244e-08
9.939395018e-09
3.738425731e-09
1.551307144e-09
7.266267044e-10
4.205156636e-10
3.126171849e-10
2.770851256e-10
2.662220136e-10
2.633764208e-10
2.630356142e-10
2.632366685e-10
2.635093471e-10
2.637377966e-10
2.63908595e-10
2.640346667e-10
2.641311325e-10
2.642087748e-10
2.642740636e-10
2.64330722e-10
2.643809626e-10
2.644261958e-10
2.644673743e-10
2.645051665e-10
2.645400898e-10
2.645725312e-10
2.646028036e-10
2.646311581e-10
2.646578019e-10
2.646829095e-10
2.647066222e-10
2.647290685e-10
2.64750357e-10
2.647705848e-10
2.647898228e-10
2.648081502e-10
2.648256325e-10
2.648423281e-10
2.648582938e-10
2.648735609e-10
2.648881808e-10
2.64902188e-10
2.649156504e-10
2.649286662e-10
2.649415267e-10
2.64954787e-10
2.649701566e-10
2.649912444e-10
2.650253969e-10
2.650823819e-10
2.651703777e-10
2.652770924e-10
2.65335487e-10
6.366823266e-06
4.869126442e-07
3.859497607e-07
1.948527633e-06
3.118904418e-06
2.510165554e-06
5.826054627e-07
8.825930545e-08
2.170337286e-08
7.143143851e-09
2.664378934e-09
1.096118335e-09
5.398531079e-10
3.495205729e-10
2.879217568e-10
2.691851195e-10
2.64070153e-10
2.631321102e-10
2.631917469e-10
2.634470937e-10
2.636909683e-10
2.638843329e-10
2.640321234e-10
2.641469294e-10
2.642391871e-10
2.643158657e-10
2.643813966e-10
2.644386436e-10
2.644895197e-10
2.645353348e-10
2.645770066e-10
2.646152148e-10
2.646504657e-10
2.646831593e-10
2.647136127e-10
2.64742086e-10
2.64768793e-10
2.64793913e-10
2.648175996e-10
2.648399832e-10
2.648611792e-10
2.648812828e-10
2.649003827e-10
2.649185553e-10
2.649358662e-10
2.649523773e-10
2.649681379e-10
2.649832041e-10
2.649976257e-10
2.650114747e-10
2.650248855e-10
2.650382128e-10
2.650522199e-10
2.650688409e-10
2.650919373e-10
2.65128105e-10
2.651847742e-10
2.652655232e-10
2.653552927e-10
2.653943654e-10
1.064094367e-05
1.084298634e-06
2.615439055e-07
1.882687063e-06
3.930211706e-06
4.382258192e-06
1.659438139e-06
2.526182643e-07
4.831826992e-08
1.345602066e-08
4.476040881e-09
1.648554684e-09
7.092387552e-10
4.008138498e-10
3.03129201e-10
2.735034213e-10
2.6514919e-10
2.633062669e-10
2.631254657e-10
2.633310354e-10
2.635782121e-10
2.637887821e-10
2.639560833e-10
2.640888707e-10
2.641963195e-10
2.642852329e-10
2.643603833e-10
2.644251611e-10
2.644819991e-10
2.645326246e-10
2.645782629e-10
2.646197946e-10
2.646578704e-10
2.646929874e-10
2.647255363e-10
2.647558321e-10
2.647841331e-10
2.648106544e-10
2.648355785e-10
2.648590594e-10
2.648812319e-10
2.649022091e-10
2.649220914e-10
2.649409664e-10
2.649589086e-10
2.649759893e-10
2.649922666e-10
2.650078037e-10
2.650226682e-10
2.650369579e-10
2.650508512e-10
2.650647933e-10
2.650797447e-10
2.650979028e-10
2.651233195e-10
2.651620546e-10
2.652200419e-10
2.652983151e-10
2.653803025e-10
2.654075108e-10
1.737472349e-05
1.794805453e-06
2.702785636e-07
1.548755076e-06
4.809066169e-06
6.43588224e-06
3.863592785e-06
7.118641496e-07
1.161307297e-07
2.597183708e-08
7.416291159e-09
2.429133588e-09
9.281820368e-10
4.646356727e-10
3.222967058e-10
2.792584775e-10
2.667463828e-10
2.636552649e-10
2.631075231e-10
2.632191084e-10
2.634536344e-10
2.63674838e-10
2.638587188e-10
2.64008556e-10
2.641314908e-10
2.642335351e-10
2.643193195e-10
2.64392497e-10
2.644559387e-10
2.645118135e-10
2.645617073e-10
2.646067567e-10
2.64647791e-10
2.646854266e-10
2.64720141e-10
2.647523109e-10
2.647822452e-10
2.648101972e-10
2.648363813e-10
2.648609777e-10
2.648841408e-10
2.649060014e-10
2.649266729e-10
2.649462548e-10
2.649648333e-10
2.649824904e-10
2.64999293e-10
2.650153141e-10
2.65030636e-10
2.650453877e-10
2.650598095e-10
2.650744636e-10
2.650905175e-10
2.65110403e-10
2.651382256e-10
2.651795427e-10
2.652390712e-10
2.653160061e-10
2.653927801e-10
2.654100264e-10
2.303576413e-05
2.706466134e-06
3.427745174e-07
9.938922664e-07
5.861812792e-06
8.970310096e-06
7.08986993e-06
1.882967336e-06
2.77795925e-07
5.086572127e-08
1.197434747e-08
3.418957086e-09
1.172413967e-09
5.32695583e-10
3.433229935e-10
2.860483447e-10
2.688397597e-10
2.642149445e-10
2.631712658e-10
2.631366867e-10
2.633378881e-10
2.635606157e-10
2.637564614e-10
2.639210165e-10
2.64058627e-10
2.641740028e-10
2.642711403e-10
2.643535543e-10
2.644243264e-10
2.644859975e-10
2.64540525e-10
2.645893484e-10
2.646335151e-10
2.646737922e-10
2.647107613e-10
2.647448738e-10
2.647764935e-10
2.648059168e-10
2.648333914e-10
2.648591256e-10
2.648832947e-10
2.649060485e-10
2.649275149e-10
2.649478075e-10
2.649670251e-10
2.649852597e-10
2.650025883e-10
2.650190959e-10
2.650348831e-10
2.650501203e-10
2.65065123e-10
2.650805769e-10
2.650978532e-10
2.651195737e-10
2.651497737e-10
2.651934744e-10
2.652542878e-10
2.653299173e-10
2.65402114e-10
2.654092461e-10
3.23633526e-05
4.244120897e-06
4.040992879e-07
8.012927408e-07
7.423817962e-06
1.225679637e-05
1.140171459e-05
4.326300752e-06
6.368287628e-07
1.018872837e-07
1.949351106e-08
4.737468698e-09
1.451621691e-09
6.056212647e-10
3.661637739e-10
2.938043421e-10
2.714045753e-10
2.649902272e-10
2.633324941e-10
2.6310038e-10
2.632453912e-10
2.634581634e-10
2.63659261e-10
2.638342489e-10
2.639839588e-10
2.641114546e-10
2.642197148e-10
2.64311681e-10
2.643902877e-10
2.644582359e-10
2.645177739e-10
2.645706386e-10
2.646181179e-10
2.646611572e-10
2.647004633e-10
2.647365771e-10
2.647699253e-10
2.648008522e-10
2.648296408e-10
2.648565284e-10
2.648817134e-10
2.64905366e-10
2.649276311e-10
2.64948637e-10
2.649684945e-10
2.649873051e-10
2.650051582e-10
2.650221539e-10
2.65038417e-10
2.650541703e-10
2.650698152e-10
2.650861617e-10
2.651047644e-10
2.651283722e-10
2.651608696e-10
2.652066994e-10
2.652684412e-10
2.65342567e-10
2.654103058e-10
2.654066355e-10
4.537669838e-05
6.65671626e-06
9.272366927e-07
1.049055475e-06
9.854030154e-06
1.666172423e-05
1.626673547e-05
8.344143352e-06
1.485199766e-06
2.208473151e-07
3.294102181e-08
6.458920914e-09
1.744036653e-09
6.774155464e-10
3.895749812e-10
3.022169157e-10
2.743606952e-10
2.659668244e-10
2.635988622e-10
2.631230871e-10
2.631888881e-10
2.633788614e-10
2.635768306e-10
2.637561711e-10
2.639135577e-10
2.640502267e-10
2.641679525e-10
2.642687835e-10
2.643551239e-10
2.644295122e-10
2.644942899e-10
2.645513988e-10
2.646023426e-10
2.646482491e-10
2.646899623e-10
2.64728123e-10
2.647632296e-10
2.647956786e-10
2.648257924e-10
2.648538393e-10
2.648800426e-10
2.64904594e-10
2.649276568e-10
2.649493734e-10
2.649698666e-10
2.649892487e-10
2.650076247e-10
2.650251136e-10
2.650418719e-10
2.650581824e-10
2.650745403e-10
2.65091879e-10
2.651119022e-10
2.651374122e-10
2.651720911e-10
2.652197848e-10
2.652821104e-10
2.653545415e-10
2.654179215e-10
2.654037541e-10
6.263457537e-05
8.810774256e-06
1.407657521e-06
1.65728678e-06
1.446784853e-05
2.297158902e-05
2.16779221e-05
1.292203465e-05
3.207180114e-06
4.980988893e-07
5.936817638e-08
8.907482947e-09
2.064727638e-09
7.517725207e-10
4.145425604e-10
3.114081409e-10
2.776992669e-10
2.671361581e-10
2.639727634e-10
2.632120658e-10
2.631768025e-10
2.633313183e-10
2.63517329e-10
2.636940972e-10
2.638535746e-10
2.639951058e-10
2.641192758e-10
2.642271224e-10
2.643202468e-10
2.644006958e-10
2.644706289e-10
2.645320172e-10
2.645864905e-10
2.646353222e-10
2.646794837e-10
2.647197164e-10
2.647565941e-10
2.647905691e-10
2.64822007e-10
2.648512088e-10
2.648784247e-10
2.649038682e-10