/*--------------------------------*- C++ -*----------------------------------*\
  =========                 |
  \\      /  F ield         | OpenFOAM: The Open Source CFD Toolbox
   \\    /   O peration     | Website:  https://openfoam.org
    \\  /    A nd           | Version:  10
     \\/     M anipulation  |
\*---------------------------------------------------------------------------*/
FoamFile
{
    format      ascii;
    class       volScalarField;
    location    "0.0250188088";
    object      C2H6_0;
}
// * * * * * * * * * * * * * * * * * * * * * * * * * * * * * * * * * * * * * //

dimensions      [0 0 0 0 0 0 0];

internalField   nonuniform List<scalar> 
5170
(
2.909758804e-10
2.904667749e-10
2.871079382e-10
2.633974217e-10
2.034036238e-11
5.826362316e-10
5.810509811e-10
5.739203924e-10
5.37517481e-10
3.31621687e-10
8.724034116e-10
8.6978604e-10
8.594070276e-10
8.1602731e-10
6.451285427e-10
1.158395928e-09
1.154877997e-09
1.142110431e-09
1.096079948e-09
9.602232386e-10
1.440302465e-09
1.436047188e-09
1.421817905e-09
1.376562466e-09
1.275316648e-09
1.718211972e-09
1.713503994e-09
1.698764658e-09
1.657332177e-09
1.59021733e-09
1.992556025e-09
1.987633138e-09
1.973296889e-09
1.938678893e-09
1.90517246e-09
2.263964428e-09
2.259157557e-09
2.246079539e-09
2.220753923e-09
2.220536669e-09
2.532922882e-09
2.528514181e-09
2.517627854e-09
2.503929289e-09
2.536629172e-09
2.799895509e-09
2.796082383e-09
2.788012352e-09
2.788562758e-09
2.853734529e-09
3.065122068e-09
3.062113302e-09
3.057407796e-09
3.074774018e-09
3.171835718e-09
3.328627914e-09
3.326686347e-09
3.326484721e-09
3.362465194e-09
3.490588854e-09
3.590502922e-09
3.589891806e-09
3.59549329e-09
3.651632003e-09
3.809664982e-09
3.850838626e-09
3.851831519e-09
3.864392541e-09
3.942235049e-09
4.12874631e-09
4.109683855e-09
4.112611666e-09
4.133220262e-09
4.23410423e-09
4.447456496e-09
4.367021111e-09
4.372258724e-09
4.40240102e-09
4.527284343e-09
4.765052402e-09
4.622905878e-09
4.630872755e-09
4.671688529e-09
4.821222406e-09
5.081834203e-09
4.877432592e-09
4.888622373e-09
4.941941971e-09
5.116514786e-09
5.397529991e-09
5.131223727e-09
5.147806207e-09
5.227660492e-09
5.516250223e-09
6.129193706e-09
5.539604096e-09
6.27675743e-09
1.247123731e-08
5.511541025e-08
2.451936584e-07
7.260977467e-28
1.172070453e-29
0
0
0
2.597707318e-28
0
0
0
0
7.055304821e-29
0
0
0
0
0
0
0
0
0
0
0
0
0
0
0
0
0
1.276293796e-17
1.110286872e-16
0
1.7907379e-18
0
0
2.920602728e-17
0
0
0
2.752356859e-17
0
8.484415999e-16
1.436887186e-16
0
0
0
0
0
0
0
0
0
0
0
0
0
0
0
0
0
0
0
0
0
0
0
0
0
0
0
0
0
0
0
0
0
0
0
0
0
0
0
0
0
0
0
0
0
0
0
0
1.410448687e-08
0
0
0
0
3.658729686e-06
1.60699966e-07
2.940731452e-08
3.33749186e-10
8.021396843e-12
1.154687781e-08
5.191154264e-08
7.20339843e-07
1.066874391e-05
0.0001415949072
3.971301485e-08
2.364829753e-07
2.846860476e-06
3.026978838e-05
0.000234862342
1.226892793e-07
7.234091004e-07
7.332723229e-06
5.972804695e-05
0.0003182744524
3.212691986e-07
1.758894013e-06
1.514492242e-05
9.820542226e-05
0.0003876536729
7.509483672e-07
3.807750934e-06
2.801744754e-05
0.0001437052255
0.0004408988628
1.611558414e-06
7.556798175e-06
4.687301583e-05
0.0001919485168
0.0004856656902
3.232052205e-06
1.390790569e-05
7.205722602e-05
0.0002406472629
0.0005287219597
6.129445934e-06
2.394867693e-05
0.0001033467503
0.0002890500613
0.0005703038104
1.115456247e-05
3.911463651e-05
0.0001401664676
0.0003359131761
0.000607300092
1.960800792e-05
6.073609884e-05
0.000181515099
0.0003817235891
0.0006421914673
3.350032407e-05
9.027096963e-05
0.0002266325402
0.0004270156312
0.000676203666
5.659292822e-05
0.0001282546455
0.0002741660446
0.0004722253558
0.0007098593521
9.32755784e-05
0.0001743545354
0.0003239127305
0.0005171768069
0.0007424197535
0.000142091644
0.0002271238697
0.0003755092684
0.0005615230768
0.0007733107964
0.0002068867923
0.0002884581615
0.0004304878192
0.0006067805837
0.0008049623246
0.0002829687787
0.0003573157049
0.0004900367979
0.0006554710352
0.0008407454302
0.0003702682711
0.000436320937
0.0005577834307
0.0007110113674
0.0008832366779
0.000470962087
0.0005279798604
0.0006369431149
0.0007782860253
0.0009401185887
0.0005802689961
0.0006304114686
0.0007300593845
0.0008637667701
0.001019897345
0.0006998638008
0.0007448918946
0.0008357547765
0.0009586194875
0.001102062646
0.0008224348764
0.0008581180715
0.000929042993
0.001021521977
0.001123295603
0.0009080185996
0.0009265447178
0.0009629128977
0.001008316356
0.001054150027
0.0008935146281
0.0008988941786
0.0009086167506
0.0009186702545
0.0009248561683
0.000796197938
0.0007952714383
0.0007921404463
0.0007853878338
0.0007735211882
0.0006629394392
0.0006600142233
0.0006529694791
0.0006415873667
0.000625737445
0.0005290277647
0.0005260752188
0.0005192988099
0.000508787035
0.0004946987269
0.0004192918226
0.0004168890723
0.0004113697588
0.0004029030474
0.0003917265108
0.0003303707731
0.0003285238998
0.0003243043863
0.0003178696724
0.0003094302972
0.0002593914337
0.0002580152192
0.0002548810944
0.0002501129005
0.000243872382
0.0002026434666
0.0002016367933
0.0001993464433
0.0001958629401
0.0001913038995
0.0001569289194
0.0001562040491
0.0001545531545
0.0001520392387
0.0001487454191
0.0001198574687
0.0001193442751
0.0001181718441
0.0001163823236
0.000114033565
8.977128449e-05
8.941530886e-05
8.859804161e-05
8.734653073e-05
8.570055028e-05
6.55863032e-05
6.53457812e-05
6.478976809e-05
6.393487751e-05
6.280810601e-05
4.657235467e-05
4.641495206e-05
4.604798458e-05
4.548107214e-05
4.4732189e-05
3.211552307e-05
3.201615057e-05
3.178206265e-05
3.141847449e-05
3.093706972e-05
2.156038104e-05
2.149982405e-05
2.135551774e-05
2.113005417e-05
2.08308032e-05
1.418006975e-05
1.414428807e-05
1.405794944e-05
1.392222199e-05
1.374162e-05
9.234188931e-06
9.213450538e-06
9.162825705e-06
9.082779769e-06
8.975996772e-06
6.046030625e-06
6.034014918e-06
6.004434022e-06
5.957454526e-06
5.894633541e-06
4.0559205e-06
4.048760173e-06
4.031109294e-06
4.003033417e-06
3.965421599e-06
2.839998598e-06
2.835473544e-06
2.824409736e-06
2.806855956e-06
2.783319127e-06
2.101375045e-06
2.098276476e-06
2.090829024e-06
2.079089022e-06
2.063350573e-06
1.646140372e-06
1.643841725e-06
1.638428786e-06
1.629967467e-06
1.618635608e-06
1.355189308e-06
1.353372046e-06
1.349171931e-06
1.342658984e-06
1.333947278e-06
1.158998129e-06
1.157499234e-06
1.154083391e-06
1.14881984e-06
1.141786934e-06
1.01845872e-06
1.017189489e-06
1.014325018e-06
1.009930541e-06
1.004063337e-06
9.119682657e-07
9.108759181e-07
9.084263439e-07
9.046794255e-07
8.996791809e-07
8.275376694e-07
8.265873303e-07
8.244652993e-07
8.212257352e-07
8.169036886e-07
7.582755375e-07
7.574423351e-07
7.555870798e-07
7.527584758e-07
7.489851092e-07
6.998962518e-07
6.991587545e-07
6.97523065e-07
6.950328757e-07
6.917117237e-07
6.505256577e-07
6.498727669e-07
6.484248723e-07
6.462212763e-07
6.432818711e-07
6.080088314e-07
6.074263639e-07
6.061363908e-07
6.041742396e-07
6.015567009e-07
5.711446506e-07
5.706217902e-07
5.694652518e-07
5.677069749e-07
5.653612251e-07
5.390690303e-07
5.385963334e-07
5.375520096e-07
5.359651357e-07
5.338479137e-07
5.111644383e-07
5.107331917e-07
5.097816239e-07
5.083365021e-07
5.064083596e-07
4.869740344e-07
4.865758563e-07
4.856984852e-07
4.843669529e-07
4.825904876e-07
4.660574691e-07
4.656844762e-07
4.648638714e-07
4.63619516e-07
4.619596814e-07
4.477994374e-07
4.474451471e-07
4.466668858e-07
4.4548776e-07
4.439153916e-07
4.312727457e-07
4.309333826e-07
4.301887684e-07
4.290613809e-07
4.275584025e-07
4.152877975e-07
4.149630231e-07
4.142506559e-07
4.131722707e-07
4.117347707e-07
3.986684112e-07
3.983612139e-07
3.976870301e-07
3.966661361e-07
3.953051619e-07
3.806797935e-07
3.803951897e-07
3.797696667e-07
3.788216576e-07
3.775575381e-07
3.612928068e-07
3.610340592e-07
3.604641327e-07
3.595991845e-07
3.584450204e-07
3.410842306e-07
3.408532357e-07
3.403433112e-07
3.395684043e-07
3.385338421e-07
3.21088697e-07
3.208848293e-07
3.204339974e-07
3.19748212e-07
3.188322935e-07
3.024551408e-07
3.022755482e-07
3.018778862e-07
3.012722757e-07
3.004625511e-07
2.858337113e-07
2.856703419e-07
2.853088121e-07
2.847585035e-07
2.840230012e-07
2.713411425e-07
2.711897389e-07
2.708550054e-07
2.703456016e-07
2.696645724e-07
2.596298097e-07
2.594873451e-07
2.591726925e-07
2.58694195e-07
2.580547628e-07
0.0004927875729
0.0005940099334
0.0006739836334
0.0007122784735
0.0007289097385
0.0007468135164
0.0007732683043
0.0008000150906
0.0008197335286
0.0008399482219
0.0008608947297
0.00088262701
0.0009031607444
0.0009216380069
0.0009423126439
0.0009690665438
0.001002941655
0.00105267654
0.001130248824
0.001202503012
0.001189571152
0.001080501498
0.0009250376949
0.0007626854588
0.0006132680745
0.0004839182125
0.0003833262085
0.0003031249537
0.0002392210184
0.0001879121178
0.0001463019405
0.000112299821
8.449509822e-05
6.199204707e-05
4.419759144e-05
3.059933599e-05
2.062494358e-05
1.361988883e-05
8.90533203e-06
5.853536943e-06
3.940779986e-06
2.767608203e-06
2.052489364e-06
1.610507512e-06
1.327479085e-06
1.136426728e-06
9.995096152e-07
8.957504987e-07
8.134792219e-07
7.459772004e-07
6.890509125e-07
6.409189866e-07
5.99445682e-07
5.634637212e-07
5.321303089e-07
5.04839544e-07
4.811406164e-07
4.60600711e-07
4.426243322e-07
4.263218397e-07
4.105515359e-07
3.941863798e-07
3.765217077e-07
3.575025004e-07
3.376923785e-07
3.180896954e-07
2.998060539e-07
2.834265069e-07
2.691108984e-07
2.575341812e-07
0.001098996277
8.185778744e-05
2.397093251e-06
5.867853288e-08
1.109225029e-09
0.001218636213
0.001173396367
6.780964467e-05
2.038118022e-06
4.659589345e-08
0.001304653721
0.001917525848
0.000174478571
8.98854457e-06
2.725690773e-07
0.001270470847
0.001778870313
0.0002206907085
1.716334658e-05
8.182000473e-07
0.001212570059
0.001652174262
0.0003560230794
3.652543473e-05
2.610864635e-06
0.001179186715
0.001618154086
0.0007324276829
9.093413131e-05
8.237306153e-06
0.001174665148
0.001638716505
0.001108421498
0.0001588222604
1.777715566e-05
0.00117168474
0.001620651336
0.001355825207
0.0002186338563
2.84120303e-05
0.001157140079
0.00156051632
0.001394949268
0.0002625106075
3.916659785e-05
0.001151236409
0.001527940526
0.001485252077
0.0003552239215
5.825602521e-05
0.00114836975
0.001508242255
0.001520773971
0.0004748066684
8.509593161e-05
0.001149098058
0.001482080843
0.001507621357
0.0006153438591
0.00011857107
0.001148319301
0.001444607514
0.001482096513
0.0007463164668
0.0001546517759
0.001145675456
0.001415223311
0.001471913428
0.0008766533329
0.0002004422901
0.001149546635
0.001404314461
0.001473775057
0.0009831864021
0.0002590961468
0.001161636735
0.001404503143
0.001479585807
0.001068898828
0.000329400132
0.001182191059
0.001411972447
0.001488812346
0.001132970079
0.0003951285838
0.001220602952
0.001435765398
0.001503450929
0.001127923888
0.0003898799988
0.001292507021
0.001495957192
0.001515907248
0.001016168152
0.0003005480471
0.001348776335
0.001530213182
0.001566729374
0.001186291026
0.0003254859659
0.001286216766
0.001385384264
0.001396372324
0.001274393672
0.001013121228
0.001120580379
0.001134680496
0.001084451719
0.0009643916683
0.0007903278842
0.0009284833473
0.0008985636502
0.0008297086647
0.000728300141
0.0006080351067
0.0007505965529
0.0007091311907
0.0006463548088
0.0005683807529
0.0004835434138
0.0005984995692
0.000560659528
0.0005101796763
0.0004517376372
0.0003902365032
0.0004709379278
0.000440733269
0.0004025453321
0.0003596344728
0.0003150619554
0.0003732068123
0.0003502721224
0.0003217818013
0.0002900448518
0.0002571108491
0.0002955391795
0.0002784802108
0.0002573756229
0.0002338632379
0.0002093595055
0.0002336510734
0.0002210858046
0.000205493015
0.0001880413971
0.0001697317051
0.0001838915321
0.0001747141197
0.0001632336979
0.0001502894901
0.0001365990215
0.0001434582387
0.0001368297003
0.0001284330832
0.0001188744808
0.0001086734247
0.0001103410922
0.0001056263452
9.955089699e-05
9.2554754e-05
8.501650999e-05
8.319202881e-05
7.990785389e-05
7.558222063e-05
7.05354079e-05
6.504379536e-05
6.116310965e-05
5.893760119e-05
5.592663833e-05
5.236227326e-05
4.844497584e-05
4.369844119e-05
4.224028872e-05
4.020378305e-05
3.775446573e-05
3.503527955e-05
3.031722052e-05
2.939656656e-05
2.80631367e-05
2.643201574e-05
2.460243696e-05
2.04760394e-05
1.991541614e-05
1.907039026e-05
1.801840753e-05
1.682611402e-05
1.354631264e-05
1.32150532e-05
1.26947915e-05
1.203581343e-05
1.12813027e-05
8.870457819e-06
8.678065642e-06
8.364274626e-06
7.960577254e-06
7.493967264e-06
5.836369164e-06
5.724125186e-06
5.536119854e-06
5.291415113e-06
5.00632991e-06
3.93058911e-06
3.862796676e-06
3.748639397e-06
3.599325794e-06
3.424451378e-06
2.759666022e-06
2.715944197e-06
2.643999064e-06
2.550292492e-06
2.44036651e-06
2.045139057e-06
2.014499533e-06
1.966440809e-06
1.904668213e-06
1.832373632e-06
1.603412475e-06
1.580191267e-06
1.545832965e-06
1.502492002e-06
1.452038382e-06
1.320726507e-06
1.30206523e-06
1.275894575e-06
1.243512221e-06
1.206056669e-06
1.130152314e-06
1.114581178e-06
1.093627588e-06
1.068115593e-06
1.038777871e-06
9.937873756e-07
9.804972957e-07
9.631212049e-07
9.422153255e-07
9.18281174e-07
8.905896469e-07
8.790867618e-07
8.643352554e-07
8.467320626e-07
8.266402936e-07
8.088489965e-07
7.987984158e-07
7.860757763e-07
7.709777283e-07
7.537789468e-07
7.41827819e-07
7.329828081e-07
7.218875344e-07
7.087711222e-07
6.938486735e-07
6.853244336e-07
6.774915645e-07
6.677353819e-07
6.562360678e-07
6.431645531e-07
6.375720929e-07
6.30603225e-07
6.219662295e-07
6.11806277e-07
6.002622428e-07
5.964260936e-07
5.901911211e-07
5.824967011e-07
5.73460288e-07
5.631953678e-07
5.607253971e-07
5.55113646e-07
5.482151401e-07
5.401252001e-07
5.309369423e-07
5.296304633e-07
5.245443736e-07
5.183156054e-07
5.110215436e-07
5.027387614e-07
5.025363484e-07
4.978854706e-07
4.922125649e-07
4.855802341e-07
4.780515345e-07
4.78992149e-07
4.746896713e-07
4.694660032e-07
4.633715199e-07
4.564582166e-07
4.585671373e-07
4.545316066e-07
4.496578845e-07
4.439864018e-07
4.37560343e-07
4.406747037e-07
4.368394681e-07
4.322320736e-07
4.268854323e-07
4.208358116e-07
4.244425067e-07
4.207687968e-07
4.163729645e-07
4.112824478e-07
4.055296341e-07
4.087502769e-07
4.052358663e-07
4.010354705e-07
3.961754048e-07
3.906863993e-07
3.924901221e-07
3.891679337e-07
3.851890055e-07
3.805803948e-07
3.753727672e-07
3.74965533e-07
3.718867661e-07
3.681800947e-07
3.638698093e-07
3.58987947e-07
3.561047741e-07
3.533061312e-07
3.499082939e-07
3.459422888e-07
3.414404032e-07
3.364613714e-07
3.339633997e-07
3.30906302e-07
3.273225344e-07
3.232441973e-07
3.170151128e-07
3.148104279e-07
3.120943117e-07
3.088996916e-07
3.05251121e-07
2.988603532e-07
2.969079449e-07
2.944932854e-07
2.916348021e-07
2.883614198e-07
2.825652765e-07
2.80793094e-07
2.7859489e-07
2.759948453e-07
2.730148868e-07
2.683047652e-07
2.666550244e-07
2.646221509e-07
2.622263534e-07
2.594867366e-07
2.567719889e-07
2.552212006e-07
2.533179942e-07
2.510839709e-07
2.485385327e-07
5.002400074e-10
2.789964568e-09
5.602644147e-10
1.7212331e-10
9.681747752e-11
7.458135902e-11
6.644382923e-11
6.338810174e-11
6.228550177e-11
6.190816868e-11
6.178018275e-11
6.172540435e-11
6.16905188e-11
6.166329003e-11
6.164494204e-11
6.16442916e-11
6.162889311e-11
6.159889062e-11
6.158494564e-11
6.157624535e-11
6.156782034e-11
6.155913256e-11
6.155046044e-11
6.154217823e-11
6.153445717e-11
6.152735381e-11
6.152086614e-11
6.151495597e-11
6.150946845e-11
6.150434248e-11
6.149961575e-11
6.149529398e-11
6.149129624e-11
6.148759179e-11
6.148413172e-11
6.148098855e-11
6.147820313e-11
6.147565543e-11
6.147331859e-11
6.147119816e-11
6.146926106e-11
6.146744952e-11
6.146575178e-11
6.146408226e-11
6.146257945e-11
6.146143668e-11
6.146056205e-11
6.145986622e-11
6.145922419e-11
6.145874589e-11
6.14583366e-11
6.145807979e-11
6.145784014e-11
6.145755288e-11
6.145523659e-11
6.143556089e-11
6.130661263e-11
6.069698948e-11
5.853768204e-11
5.571907854e-11
1.099594402e-08
2.130360274e-08
2.642713641e-09
5.205679587e-10
2.366001079e-10
1.708136659e-10
1.487110657e-10
1.397940824e-10
1.360090783e-10
1.34411941e-10
1.337509257e-10
1.334613485e-10
1.333105995e-10
1.332061504e-10
1.331255381e-10
1.330780599e-10
1.330270172e-10
1.329695231e-10
1.329423919e-10
1.329234601e-10
1.329034324e-10
1.328806633e-10
1.328579821e-10
1.328371977e-10
1.328183951e-10
1.32801641e-10
1.327865129e-10
1.327724623e-10
1.327594487e-10
1.327483157e-10
1.327393364e-10
1.327319128e-10
1.327250008e-10
1.327184654e-10
1.327127142e-10
1.327083867e-10
1.327057683e-10
1.327026544e-10
1.326993257e-10
1.326971692e-10
1.32696275e-10
1.326954873e-10
1.326947002e-10
1.326942701e-10
1.326935227e-10
1.326933521e-10
1.326937472e-10
1.326950163e-10
1.326954138e-10
1.326971408e-10
1.326983866e-10
1.327006541e-10
1.327021979e-10
1.327039263e-10
1.327013323e-10
1.326779596e-10
1.325623037e-10
1.321903269e-10
1.315929755e-10
1.314046047e-10
5.510540495e-08
4.47355171e-08
7.558797148e-09
1.382287784e-09
5.012421969e-10
3.075514423e-10
2.438349148e-10
2.165537244e-10
2.034577918e-10
1.971562234e-10
1.942523975e-10
1.929760716e-10
1.924145382e-10
1.921294456e-10
1.919415676e-10
1.918018132e-10
1.917104576e-10
1.916658491e-10
1.916464926e-10
1.916272946e-10
1.915991301e-10
1.915630976e-10
1.915248101e-10
1.914887e-10
1.914561822e-10
1.914269548e-10
1.914010036e-10
1.913784131e-10
1.913587073e-10
1.913414595e-10
1.913267743e-10
1.913146166e-10
1.913045375e-10
1.912970057e-10
1.912908323e-10
1.912863592e-10
1.91284299e-10
1.912821281e-10
1.912799772e-10
1.912789814e-10
1.912795513e-10
1.912803892e-10
1.912820169e-10
1.912851684e-10
1.912886267e-10
1.912924811e-10
1.912965758e-10
1.913018518e-10
1.913060397e-10
1.913122694e-10
1.913178884e-10
1.913250746e-10
1.913310631e-10
1.913387759e-10
1.913429406e-10
1.91345346e-10
1.91350155e-10
1.914842124e-10
1.923278348e-10
1.93588629e-10
1.512897402e-07
1.600918507e-07
5.959012499e-08
8.734261966e-09
2.042194047e-09
8.42186515e-10
4.958492025e-10
3.549370298e-10
2.883351165e-10
2.560569874e-10
2.409177884e-10
2.34262846e-10
2.315503387e-10
2.304938123e-10
2.300510416e-10
2.29811645e-10
2.297277054e-10
2.297705566e-10
2.298167574e-10
2.298413956e-10
2.29840282e-10
2.298216956e-10
2.297957304e-10
2.29769134e-10
2.297449892e-10
2.297239539e-10
2.297057829e-10
2.296905648e-10
2.296779999e-10
2.296678037e-10
2.296598668e-10
2.296541397e-10
2.296504275e-10
2.296490925e-10
2.296491821e-10
2.296509054e-10
2.296547197e-10
2.296585292e-10
2.29662444e-10
2.296671095e-10
2.296727336e-10
2.296787362e-10
2.296854423e-10
2.296932839e-10
2.297017152e-10
2.297105645e-10
2.297194042e-10
2.297290344e-10
2.297378675e-10
2.297483358e-10
2.297584739e-10
2.297699716e-10
2.297800298e-10
2.297928789e-10
2.298061271e-10
2.298372599e-10
2.29937099e-10
2.303357183e-10
2.315461893e-10
2.32906345e-10
2.452138258e-07
3.302270525e-07
3.550820249e-07
7.830091416e-08
1.308746893e-08
3.656052574e-09
1.54053173e-09
8.162179436e-10
5.050207586e-10
3.615714494e-10
2.959601782e-10
2.674222789e-10
2.559268865e-10
2.516628711e-10
2.501938011e-10
2.496819213e-10
2.49609369e-10
2.497728922e-10
2.499204947e-10
2.500205052e-10
2.500745147e-10
2.500979928e-10
2.50106165e-10
2.501085995e-10
2.501099132e-10
2.501116947e-10
2.501142728e-10
2.501178622e-10
2.501224203e-10
2.501279005e-10
2.50134308e-10
2.501415589e-10
2.50149663e-10
2.501588765e-10
2.501686922e-10
2.501792268e-10
2.501906231e-10
2.502018172e-10
2.502128288e-10
2.502240388e-10
2.502355255e-10
2.502469586e-10
2.50258589e-10
2.502705999e-10
2.502827949e-10
2.502951538e-10
2.503074247e-10
2.503198543e-10
2.503317567e-10
2.503444676e-10
2.503569904e-10
2.503702729e-10
2.503827022e-10
2.503976796e-10
2.504162579e-10
2.504589879e-10
2.505806633e-10
2.509619504e-10
2.518719065e-10
2.527649057e-10
4.573833048e-07
3.893625044e-07
7.542499838e-07
4.305045821e-07
7.430225329e-08
1.48431991e-08
4.76957671e-09
2.041252823e-09
1.019172124e-09
5.811897339e-10
3.892777835e-10
3.079574845e-10
2.755801574e-10
2.636768898e-10
2.596738736e-10
2.58429501e-10
2.582352763e-10
2.58467881e-10
2.587032453e-10
2.588784144e-10
2.589908542e-10
2.590594106e-10
2.591034484e-10
2.591356579e-10
2.591625398e-10
2.591866066e-10
2.592090194e-10
2.592303474e-10
2.592508005e-10
2.592705512e-10
2.592897676e-10
2.593084812e-10
2.593267956e-10
2.593448955e-10
2.593626348e-10
2.593801051e-10
2.593973664e-10
2.594140808e-10
2.594302981e-10
2.594462045e-10
2.594618466e-10
2.5947705e-10
2.594919747e-10
2.595066552e-10
2.59521007e-10
2.595351581e-10
2.595490869e-10
2.595628468e-10
2.595761123e-10
2.595894245e-10
2.596024107e-10
2.596156589e-10
2.596285419e-10
2.596434468e-10
2.596631868e-10
2.597039253e-10
2.598048515e-10
2.600661639e-10
2.605839207e-10
2.61041127e-10
1.103791986e-06
3.276284535e-07
9.411376352e-07
1.122343804e-06
3.770667726e-07
6.030992457e-08
1.414800838e-08
4.96600137e-09
2.134602154e-09
1.028549062e-09
5.666140561e-10
3.76022221e-10
3.012818359e-10
2.740013345e-10
2.648409176e-10
2.620194194e-10
2.614280826e-10
2.616223154e-10
2.619018361e-10
2.621339409e-10
2.622968943e-10
2.624055889e-10
2.624808137e-10
2.625377198e-10
2.625847337e-10
2.626258251e-10
2.626629314e-10
2.62697007e-10
2.627286404e-10
2.627582594e-10
2.627861422e-10
2.628125054e-10
2.628375535e-10
2.628614551e-10
2.628842765e-10
2.629061375e-10
2.629271199e-10
2.629472044e-10
2.62966466e-10
2.629850108e-10
2.630028983e-10
2.630200914e-10
2.630366944e-10
2.63052729e-10
2.630681738e-10
2.630831152e-10
2.630975809e-10
2.631116605e-10
2.631252542e-10
2.631385204e-10
2.631513554e-10
2.631641291e-10
2.631768161e-10
2.631912387e-10
2.632106614e-10
2.632465762e-10
2.633227645e-10
2.634845177e-10
2.637520374e-10
2.639625392e-10
2.142691367e-06
2.370432557e-07
8.630775362e-07
1.646497472e-06
1.227977809e-06
2.58848542e-07
4.445008651e-08
1.229294633e-08
4.555721447e-09
1.93360592e-09
9.090633367e-10
5.01183556e-10
3.447439468e-10
2.884499014e-10
2.696953651e-10
2.639419545e-10
2.625440501e-10
2.62563514e-10
2.628339945e-10
2.630988631e-10
2.633006119e-10
2.634432535e-10
2.635452736e-10
2.636227956e-10
2.636858526e-10
2.637398268e-10
2.637875444e-10
2.638305464e-10
2.638697945e-10
2.639059523e-10
2.639394836e-10
2.639707547e-10
2.640000585e-10
2.640276254e-10
2.640536327e-10
2.640782397e-10
2.64101577e-10
2.641237379e-10
2.641448231e-10
2.641649289e-10
2.64184133e-10
2.642024692e-10
2.642200169e-10
2.642368311e-10
2.642529447e-10
2.642684067e-10
2.642832306e-10
2.642974906e-10
2.643112005e-10
2.643244392e-10
2.643372335e-10
2.643498556e-10
2.643626206e-10
2.643771738e-10
2.643969034e-10
2.6443053e-10
2.644924441e-10
2.64601507e-10
2.647528863e-10
2.64854473e-10
3.570336592e-06
2.705996377e-07
6.503962947e-07
1.873256863e-06
2.328626692e-06
1.011740262e-06
1.58352079e-07
3.212433532e-08
9.911134566e-09
3.722925349e-09
1.542999804e-09
7.225484128e-10
4.186488007e-10
3.117623785e-10
2.766373035e-10
2.659190834e-10
2.631196629e-10
2.627919949e-10
2.629964423e-10
2.632698145e-10
2.634982699e-10
2.636689445e-10
2.637949079e-10
2.638913036e-10
2.639689036e-10
2.640341658e-10
2.640908053e-10
2.641410317e-10
2.641862527e-10
2.642274198e-10
2.642652012e-10
2.643001136e-10
2.643325444e-10
2.643628061e-10
2.643911497e-10
2.644177828e-10
2.644428795e-10
2.644665814e-10
2.644890168e-10
2.645102944e-10
2.645305114e-10
2.645497384e-10
2.64568055e-10
2.645855268e-10
2.646022126e-10
2.646181686e-10
2.646334261e-10
2.646480364e-10
2.646620341e-10
2.646754869e-10
2.646884931e-10
2.647013433e-10
2.647145926e-10
2.647299476e-10
2.647510137e-10
2.647851241e-10
2.648420233e-10
2.649298446e-10
2.650362795e-10
2.650944391e-10
6.35168949e-06
4.86601533e-07
3.900120771e-07
1.967666996e-06
3.145384976e-06
2.520067434e-06
5.811838047e-07
8.798299255e-08
2.16289961e-08
7.108798468e-09
2.647246054e-09
1.08814982e-09
5.364373114e-10
3.481101514e-10
2.872925594e-10
2.688274224e-10
2.637977693e-10
2.628838111e-10
2.629497507e-10
2.632064988e-10
2.634505191e-10
2.636437608e-10
2.637914143e-10
2.639061196e-10
2.639983094e-10
2.640749409e-10
2.641404364e-10
2.641976549e-10
2.642485067e-10
2.642943001e-10
2.643359524e-10
2.643741424e-10
2.644093764e-10
2.644420539e-10
2.64472492e-10
2.645009507e-10
2.645276438e-10
2.645527504e-10
2.64576424e-10
2.645987952e-10
2.646199791e-10
2.64640071e-10
2.646591597e-10
2.646773213e-10
2.646946216e-10
2.647111223e-10
2.647268727e-10
2.647419291e-10
2.64756341e-10
2.647701805e-10
2.647835818e-10
2.647968994e-10
2.648108957e-10
2.648275032e-10
2.648505806e-10
2.648867169e-10
2.649433321e-10
2.650239864e-10
2.651136167e-10
2.651525784e-10
1.062110351e-05
1.093454871e-06
2.64853706e-07
1.905420272e-06
3.96894298e-06
4.411431213e-06
1.655127328e-06
2.515000434e-07
4.811719093e-08
1.33782882e-08
4.441129942e-09
1.633489584e-09
7.032190107e-10
3.985282345e-10
3.02226892e-10
2.730647489e-10
2.648540471e-10
2.630516935e-10
2.628817706e-10
2.630899395e-10
2.633375425e-10
2.635480343e-10
2.637151873e-10
2.63847853e-10
2.639552144e-10
2.640440651e-10
2.641191681e-10
2.641839082e-10
2.642407148e-10
2.642913131e-10
2.643369273e-10
2.643784373e-10
2.64416493e-10
2.644515914e-10
2.644841228e-10
2.64514402e-10
2.645426874e-10
2.645691937e-10
2.645941036e-10
2.646175709e-10
2.646397303e-10
2.646606949e-10
2.646805651e-10
2.646994285e-10
2.647173594e-10
2.647344293e-10
2.64750696e-10
2.647662229e-10
2.647810775e-10
2.647953574e-10
2.64809241e-10
2.648231731e-10
2.648381134e-10
2.648562577e-10
2.648816554e-10
2.649203619e-10
2.649783049e-10
2.650565087e-10
2.651384026e-10
2.651655439e-10
1.796160805e-05
1.754950621e-06
2.684359912e-07
1.574048056e-06
4.866687295e-06
6.494364548e-06
3.861984763e-06
7.065182364e-07
1.152815723e-07
2.57552963e-08
7.33963346e-09
2.400328143e-09
9.177654925e-10
4.610122711e-10
3.210014687e-10
2.787066286e-10
2.664192825e-10
2.633916608e-10
2.628614257e-10
2.629774519e-10
2.632128829e-10
2.63434111e-10
2.636178498e-10
2.637675506e-10
2.638903812e-10
2.639923483e-10
2.64078074e-10
2.641512052e-10
2.642146089e-10
2.642704517e-10
2.643203174e-10
2.64365342e-10
2.644063538e-10
2.644439687e-10
2.644786638e-10
2.645108156e-10
2.645407329e-10
2.645686688e-10
2.645948376e-10
2.646194194e-10
2.646425686e-10
2.646644159e-10
2.646850746e-10
2.647046443e-10
2.64723211e-10
2.647408567e-10
2.647576484e-10
2.647736588e-10
2.647889704e-10
2.648037119e-10
2.648181236e-10
2.648327672e-10
2.648488092e-10
2.648686798e-10
2.648964821e-10
2.649377699e-10
2.649972553e-10
2.650741271e-10
2.651508226e-10
2.651680199e-10
2.298097157e-05
2.6942859e-06
3.437176072e-07
1.01461913e-06
5.946357614e-06
9.070876077e-06
7.106539993e-06
1.865108413e-06
2.745882917e-07
5.027807403e-08
1.18079717e-08
3.366705778e-09
1.155784839e-09
5.274218798e-10
3.415759984e-10
2.85365748e-10
2.68473582e-10
2.639393873e-10
2.629217358e-10
2.62894188e-10
2.63097013e-10
2.633199426e-10
2.635156741e-10
2.636800839e-10
2.638175747e-10
2.639328588e-10
2.640299256e-10
2.641122837e-10
2.641830106e-10
2.642446441e-10
2.642991395e-10
2.643479348e-10
2.643920763e-10
2.644323304e-10
2.644692784e-10
2.645033713e-10
2.645349726e-10
2.645643786e-10
2.645918368e-10
2.646175555e-10
2.646417098e-10
2.646644496e-10
2.646859025e-10
2.647061822e-10
2.647253874e-10
2.647436101e-10
2.647609272e-10
2.647774238e-10
2.647932001e-10
2.648084267e-10
2.648234188e-10
2.648388614e-10
2.648561248e-10
2.648778291e-10
2.649080071e-10
2.649516764e-10
2.650124454e-10
2.650880127e-10
2.651601378e-10
2.651672308e-10
3.235901093e-05
4.241557746e-06
3.946078446e-07
8.157348154e-07
7.550881125e-06
1.241447643e-05
1.145583976e-05
4.287334411e-06
6.279878414e-07
1.00266013e-07
1.914232395e-08
4.646636517e-09
1.426467465e-09
5.984004323e-10
3.639273034e-10
2.929799008e-10
2.709936675e-10
2.647000763e-10
2.630784923e-10
2.628566908e-10
2.630042967e-10
2.632175306e-10
2.634185675e-10
2.635934083e-10
2.637429846e-10
2.638703738e-10
2.639785503e-10
2.640704502e-10
2.641490033e-10
2.642169075e-10
2.642764085e-10
2.643292413e-10
2.643766923e-10
2.644197062e-10
2.644589891e-10
2.644950814e-10
2.645284097e-10
2.64559318e-10
2.645880889e-10
2.6461496e-10
2.646401292e-10
2.646637669e-10
2.646860177e-10
2.6470701e-10
2.647268545e-10
2.647456527e-10
2.647634937e-10
2.647804778e-10
2.647967296e-10
2.648124718e-10
2.648281054e-10
2.648444398e-10
2.648630285e-10
2.648866187e-10
2.64919092e-10
2.649648885e-10
2.65026584e-10
2.651006476e-10
2.651683199e-10
2.651646203e-10
4.543505484e-05
6.671130995e-06
9.319445654e-07
1.071095954e-06
1.008298685e-05
1.690491586e-05
1.635844488e-05
8.285584395e-06
1.460013008e-06
2.159529172e-07
3.213212364e-08
6.301430004e-09
1.708238581e-09
6.682835688e-10
3.869013231e-10
3.012594642e-10
2.739042119e-10
2.65660742e-10
2.633396925e-10
2.628779179e-10
2.629474675e-10
2.631382382e-10
2.633362281e-10
2.635154287e-10
2.636726705e-10
2.638092187e-10
2.639268477e-10
2.640276009e-10
2.641138786e-10
2.641882157e-10
2.642529507e-10
2.643100232e-10
2.643609352e-10
2.644068134e-10
2.64448501e-10
2.644866382e-10
2.645217231e-10
2.645541519e-10
2.645842468e-10
2.646122758e-10
2.646384623e-10
2.646629978e-10
2.646860456e-10
2.647077478e-10
2.647282272e-10
2.647475962e-10
2.647659596e-10
2.647834364e-10
2.648001829e-10
2.648164817e-10
2.648328276e-10
2.648501534e-10
2.648701613e-10
2.64895652e-10
2.649303049e-10
2.649779631e-10
2.650402408e-10
2.6511261e-10
2.651759289e-10
2.651617448e-10
6.280268745e-05
8.207346874e-06
1.458773482e-06
1.70360503e-06
1.490588556e-05
2.3336802e-05
2.179229972e-05
1.2874721e-05
3.12989782e-06
4.843407602e-07
5.744644732e-08
8.639251088e-09
2.01790765e-09
7.413320249e-10
4.115911221e-10
3.103487439e-10
2.772026687e-10
2.668149161e-10
2.637085142e-10
2.629652339e-10
2.629349533e-10
2.630906633e-10
2.632768022e-10
2.634534493e-10
2.636127759e-10
2.637541746e-10
2.638782355e-10
2.639859934e-10
2.640790456e-10
2.641594356e-10
2.642293198e-10
2.642906668e-10
2.643451042e-10
2.643939043e-10
2.644380375e-10
2.644782444e-10
2.645150984e-10
2.645490515e-10
2.645804689e-10
2.646096516e-10
2.646368495e-10
2.646622761e-10
2.646861131e-10
2.647085164e-10
2.647296223e-10
2.647495559e-10
2.647684398e-10
2.647864169e-10
2.648036817e-10
2.648205834e-10
2.648377124e-10
2.648561187e-10