/*--------------------------------*- C++ -*----------------------------------*\
  =========                 |
  \\      /  F ield         | OpenFOAM: The Open Source CFD Toolbox
   \\    /   O peration     | Website:  https://openfoam.org
    \\  /    A nd           | Version:  10
     \\/     M anipulation  |
\*---------------------------------------------------------------------------*/
FoamFile
{
    format      ascii;
    class       volScalarField;
    location    "0.0250188088";
    object      C3H7;
}
// * * * * * * * * * * * * * * * * * * * * * * * * * * * * * * * * * * * * * //

dimensions      [0 0 0 0 0 0 0];

internalField   nonuniform List<scalar> 
5170
(
0
0
0
0
0
0
0
0
0
0
0
0
0
0
0
0
0
0
0
0
0
0
0
0
0
0
0
0
0
0
0
0
0
0
0
0
0
0
0
0
0
0
0
0
0
0
0
0
0
0
0
0
0
0
0
0
0
0
0
0
0
0
0
0
0
0
0
0
0
0
0
0
0
0
0
0
0
0
0
0
0
0
0
0
0
0
0
0
0
0
0
0
0
0
0
0
0
2.127899416e-14
1.025410794e-12
5.776245617e-12
0
0
0
0
4.784349654e-38
0
8.019434932e-37
0
0
0
0
1.44763637e-34
0
0
0
0
1.183672195e-32
0
1.410931462e-34
0
0
9.218560337e-31
0
3.188274803e-30
0
0
0
1.091428926e-28
0
3.125798777e-27
0
0
0
0
1.397578708e-25
8.848963729e-24
2.049634602e-24
0
0
0
0
5.646027824e-25
0
0
0
0
0
0
0
0
0
0
0
0
0
0
0
0
0
0
0
0
0
0
0
0
0
0
0
0
0
0
0
0
0
0
0
0
0
0
0
0
0
0
0
0
0
0
0
0
3.848299888e-14
0
0
0
0
1.172727951e-11
8.393404709e-13
1.378703603e-13
2.116017894e-15
3.9083015e-17
0
8.69535872e-13
1.568529128e-11
2.384627891e-10
3.566822929e-09
4.323858125e-13
4.316863679e-12
5.490678024e-11
5.646366845e-10
5.236702717e-09
1.679968583e-12
1.156847279e-11
1.139796859e-10
9.121548804e-10
6.031655049e-09
4.286507329e-12
2.403045792e-11
1.870365104e-10
1.25388227e-09
6.47085624e-09
9.278320484e-12
4.568752426e-11
3.049726672e-10
1.624128799e-09
6.938623214e-09
1.80886274e-11
7.974931465e-11
4.41502297e-10
2.084128724e-09
7.851549248e-09
3.330416002e-11
1.343453319e-10
6.389225517e-10
2.727255876e-09
9.386427943e-09
5.836768856e-11
2.152510313e-10
9.215797006e-10
3.583330682e-09
1.120536185e-08
1.007204369e-10
3.362784185e-10
1.320765455e-09
4.647868228e-09
1.307768567e-08
1.694542773e-10
5.073471953e-10
1.861398669e-09
5.899415322e-09
1.477718507e-08
2.897781319e-10
7.848599062e-10
2.590870918e-09
7.384037661e-09
1.644581911e-08
4.609515535e-10
1.194106221e-09
3.523951419e-09
9.055332458e-09
1.776839508e-08
7.762526738e-10
1.783289077e-09
4.665046749e-09
1.075825182e-08
1.822844349e-08
1.268273754e-09
2.564394284e-09
5.996300813e-09
1.240042553e-08
1.780099568e-08
2.068554408e-09
3.656615167e-09
7.583339015e-09
1.389536109e-08
1.642318339e-08
3.249655261e-09
5.120667421e-09
9.449515044e-09
1.506891694e-08
1.421670052e-08
5.116079601e-09
7.255174985e-09
1.171044655e-08
1.565896003e-08
1.196749648e-08
8.129500044e-09
1.026199023e-08
1.387382427e-08
1.459904817e-08
9.588646183e-09
1.228947992e-08
1.378362015e-08
1.495670509e-08
1.207969964e-08
7.584769191e-09
1.441736202e-08
1.423621186e-08
1.236246711e-08
8.762214933e-09
5.795875875e-09
1.081497193e-08
9.907177925e-09
8.03628251e-09
5.986394504e-09
4.461600784e-09
6.475409554e-09
6.090273084e-09
5.377853424e-09
4.6194121e-09
4.030071972e-09
4.887300132e-09
4.809877725e-09
4.677287643e-09
4.564372724e-09
4.542623604e-09
4.992340369e-09
5.029586324e-09
5.126591588e-09
5.294873568e-09
5.553409528e-09
4.669477544e-09
4.681641736e-09
4.700811734e-09
4.714028138e-09
4.702688342e-09
2.66803636e-09
2.646132039e-09
2.596333388e-09
2.512536554e-09
2.38852407e-09
1.173006449e-09
1.15893799e-09
1.12490767e-09
1.071855478e-09
1.001710599e-09
4.658952024e-10
4.597331944e-10
4.452045995e-10
4.224171837e-10
3.93779478e-10
1.802406326e-10
1.780354641e-10
1.72884802e-10
1.64372194e-10
1.533397781e-10
7.02957398e-11
6.967016754e-11
6.809025455e-11
6.507216513e-11
6.100695752e-11
2.618944644e-11
2.602049188e-11
2.560689037e-11
2.492005715e-11
2.392732076e-11
1.115899529e-11
1.107082916e-11
1.086227002e-11
1.05425868e-11
1.011698948e-11
4.896979968e-12
4.860445469e-12
4.777287515e-12
4.658355526e-12
4.51083986e-12
2.398457899e-12
2.387620599e-12
2.362231237e-12
2.325597514e-12
2.282249391e-12
1.385824936e-12
1.380651426e-12
1.368353924e-12
1.35365705e-12
1.33725651e-12
8.854506672e-13
8.860356566e-13
8.870781666e-13
8.890300913e-13
8.925126108e-13
6.05345903e-13
6.067997778e-13
6.096446479e-13
6.136453103e-13
6.187273535e-13
3.781542938e-13
3.795598574e-13
3.824364671e-13
3.867117924e-13
3.923960488e-13
2.159169213e-13
2.168775941e-13
2.187995225e-13
2.215648684e-13
2.251735216e-13
1.016385024e-13
1.020866583e-13
1.029241628e-13
1.040465092e-13
1.054463865e-13
3.09393951e-14
3.110541355e-14
3.140590168e-14
3.18121493e-14
3.232762952e-14
9.487384692e-16
1.005679766e-15
1.142193004e-15
1.413977456e-15
1.932004658e-15
0
0
0
0
1.219754481e-17
0
0
0
0
0
0
0
0
0
0
0
0
0
0
0
0
0
0
0
0
0
0
0
0
0
0
0
0
0
0
0
0
0
0
0
0
0
0
0
0
0
0
0
0
0
0
0
0
0
0
0
0
0
0
0
0
0
0
9.35195813e-20
2.139272625e-20
1.457658685e-18
0
0
0
0
0
0
0
0
0
0
0
0
0
0
0
0
0
0
0
6.810060262e-18
7.964717901e-18
1.069381429e-17
1.481135514e-17
2.005044086e-17
5.768139167e-17
5.821625587e-17
5.933829444e-17
6.090561278e-17
6.281331155e-17
8.583514198e-17
8.58141674e-17
8.57037367e-17
8.539836329e-17
8.477183503e-17
9.700619474e-17
9.593972554e-17
9.359608388e-17
9.004286434e-17
8.533033812e-17
6.518247689e-18
6.064824891e-18
5.499936613e-18
5.271113578e-18
6.75509728e-18
0
0
0
0
3.646589349e-19
9.704370475e-18
1.098617144e-17
1.459467412e-17
2.234779771e-17
4.352154157e-17
3.48590748e-16
3.483908352e-16
3.48143831e-16
3.480053421e-16
3.481480773e-16
5.335588194e-16
5.32448998e-16
5.300938137e-16
5.265966613e-16
5.219512408e-16
5.303471167e-16
5.296500765e-16
5.281004882e-16
5.257009278e-16
5.223787626e-16
4.626211359e-16
4.62445834e-16
4.619042626e-16
4.603426283e-16
4.538181664e-16
1.305472097e-08
1.671253232e-08
1.596386228e-08
1.43662078e-08
1.341600331e-08
1.370559196e-08
1.489642378e-08
1.580472878e-08
1.627195126e-08
1.614200636e-08
1.599754957e-08
1.558019606e-08
1.462686721e-08
1.345928548e-08
1.200574476e-08
1.025485178e-08
8.614549697e-09
7.094650891e-09
5.81702256e-09
4.734258424e-09
3.902364556e-09
3.806052011e-09
4.611074268e-09
5.774274021e-09
4.678863259e-09
2.298564645e-09
9.529454031e-10
3.743530228e-10
1.457788999e-10
5.837807964e-11
2.31807858e-11
9.821847607e-12
4.418567101e-12
2.259695992e-12
1.328112811e-12
8.968173411e-13
6.236173563e-13
3.977649224e-13
2.283117308e-13
1.067879344e-13
3.29287675e-14
2.588385591e-15
7.622546244e-18
0
0
0
0
0
0
0
0
0
0
0
0
0
0
0
0
2.394352337e-17
6.426289098e-17
8.409840513e-17
8.20322257e-17
9.304833809e-18
3.763590106e-18
5.348344657e-17
3.481542232e-16
5.17872907e-16
5.195265032e-16
4.530226217e-16
3.498171247e-09
3.06541432e-10
1.036253646e-11
2.903740154e-13
1.788483618e-14
6.067788806e-09
2.18374148e-08
1.25362884e-09
4.086504393e-11
1.343327459e-12
6.568353093e-09
1.068056872e-08
1.048582557e-09
5.617962268e-11
7.311008549e-12
6.927520497e-09
5.72232684e-09
9.314561993e-10
7.999041852e-11
6.188486852e-12
7.067601474e-09
5.517117969e-09
1.615644606e-08
1.474394726e-09
1.114589454e-10
7.649432332e-09
6.652131254e-09
2.747927793e-08
3.380176311e-09
3.03192839e-10
8.464554666e-09
6.388523963e-09
2.603596973e-08
3.857283768e-09
4.364247661e-10
8.793445067e-09
5.654690793e-09
1.696912681e-08
2.997939454e-09
4.053600532e-10
8.650529675e-09
5.087175112e-09
1.292718388e-08
7.300580834e-09
8.639779268e-10
8.338236451e-09
4.674692042e-09
1.004499825e-08
1.035590929e-08
1.97166564e-09
7.910172695e-09
4.525278151e-09
9.516568958e-09
1.721596413e-08
3.09230083e-09
7.564289916e-09
4.347195384e-09
8.315075624e-09
1.831270969e-08
3.558824124e-09
7.096798559e-09
4.177346197e-09
7.068739348e-09
1.720317641e-08
3.751664203e-09
6.521108489e-09
4.052283845e-09
6.379963973e-09
1.602732984e-08
7.762800388e-09
5.912221301e-09
3.729912629e-09
5.897645056e-09
1.470233173e-08
9.248718894e-09
5.27002331e-09
3.382816002e-09
5.583350579e-09
1.366048943e-08
1.151622404e-08
4.582403792e-09
3.099940152e-09
5.348900611e-09
1.269250664e-08
1.286988344e-08
4.13568364e-09
3.319790461e-09
5.698665709e-09
1.334020281e-08
1.066659281e-08
3.799963625e-09
3.742678686e-09
7.342778927e-09
1.704323146e-08
8.167351057e-09
3.621646168e-09
4.621901974e-09
1.085785828e-08
2.796725884e-08
8.050751729e-09
3.29225713e-09
3.850332262e-09
6.639767493e-09
1.402274876e-08
2.76077819e-08
3.521609715e-09
3.902963462e-09
5.431055683e-09
8.940935697e-09
1.576593378e-08
4.683280437e-09
5.441393555e-09
7.144536985e-09
9.997588497e-09
1.281507408e-08
6.07224351e-09
6.704773633e-09
7.155776705e-09
6.84913797e-09
5.664465363e-09
4.695557215e-09
4.457140792e-09
3.901608559e-09
3.107118941e-09
2.25077117e-09
2.217551617e-09
1.95706228e-09
1.600333206e-09
1.215733175e-09
8.642738945e-10
9.067040659e-10
7.851946126e-10
6.353746419e-10
4.854276435e-10
3.534123802e-10
3.559664973e-10
3.082675211e-10
2.541840367e-10
1.964273984e-10
1.462438595e-10
1.383242639e-10
1.23397104e-10
1.038318883e-10
8.257637252e-11
6.109158268e-11
5.564523704e-11
4.871950688e-11
4.122554212e-11
3.465589609e-11
2.696899792e-11
2.244847016e-11
2.011054447e-11
1.711202576e-11
1.486287503e-11
1.225979108e-11
9.567805465e-12
8.819155271e-12
7.621521346e-12
6.581710807e-12
5.655229993e-12
4.359099899e-12
4.104942794e-12
3.7825462e-12
3.354614447e-12
2.91198312e-12
2.259122388e-12
2.146063743e-12
1.995729851e-12
1.852167534e-12
1.769120491e-12
1.325590352e-12
1.304161903e-12
1.276632899e-12
1.267497621e-12
1.235407736e-12
9.087747669e-13
9.304188581e-13
9.336971137e-13
9.343095103e-13
9.347215321e-13
6.352558173e-13
6.489479621e-13
6.587944128e-13
6.709626796e-13
6.751090103e-13
4.092799047e-13
4.241989365e-13
4.327991758e-13
4.378218384e-13
4.402551944e-13
2.356263089e-13
2.435658771e-13
2.482624514e-13
2.508906935e-13
2.526414939e-13
1.10521682e-13
1.145786022e-13
1.170056942e-13
1.188383889e-13
1.199371403e-13
3.481474859e-14
3.727109208e-14
3.949782503e-14
4.218712848e-14
4.219044173e-14
3.910975346e-15
7.021179619e-15
8.068695361e-15
7.693098029e-15
6.565120342e-15
3.275270521e-17
0
0
0
0
0
0
0
0
0
0
0
0
0
0
0
0
0
0
0
0
0
0
0
0
0
0
0
0
0
0
0
0
0
0
0
0
0
0
0
0
0
0
0
0
0
0
0
0
0
0
0
0
0
0
0
0
0
0
0
0
0
0
0
0
0
0
0
0
0
0
0
0
0
0
0
0
0
0
0
0
0
0
5.242530317e-18
2.37142154e-17
2.939076713e-17
3.710962677e-17
4.435108254e-17
5.092503114e-17
5.523301607e-17
6.658144079e-17
6.965848557e-17
7.121684815e-17
7.084560105e-17
6.834927484e-17
8.312020886e-17
7.980148607e-17
7.454294005e-17
6.777883613e-17
5.77765438e-17
7.677336331e-17
6.320156746e-17
2.261175161e-17
1.119383649e-17
5.363371369e-18
2.900260148e-18
1.175695624e-18
1.809765172e-19
0
4.529930155e-19
0
0
2.821859899e-18
9.807010817e-18
3.371379669e-17
6.307476036e-17
8.533281314e-17
1.11345572e-16
1.494881649e-16
1.702025825e-16
3.46825408e-16
3.459569112e-16
3.45214283e-16
3.446603073e-16
3.426553022e-16
5.106107797e-16
4.980568345e-16
4.852922186e-16
4.716084303e-16
4.562724302e-16
5.152755774e-16
5.061476495e-16
4.944359059e-16
4.795880571e-16
4.552906617e-16
4.502911997e-16
4.447069954e-16
4.374974833e-16
4.286368525e-16
4.179034507e-16
3.433168917e-14
4.728636815e-13
1.109897638e-13
5.752748493e-14
4.901261809e-14
4.713718228e-14
4.670670372e-14
4.664865892e-14
4.667050437e-14
4.669506348e-14
4.670836218e-14
4.670975374e-14
4.67036742e-14
4.669260509e-14
4.668158733e-14
4.669540333e-14
4.669103417e-14
4.667166784e-14
4.667731228e-14
4.668159789e-14
4.668157685e-14
4.667967349e-14
4.667723708e-14
4.667476825e-14
4.667240515e-14
4.66702051e-14
4.666818821e-14
4.666634656e-14
4.666460938e-14
4.666295872e-14
4.666143602e-14
4.66600566e-14
4.665877616e-14
4.665757723e-14
4.665644374e-14
4.665541815e-14
4.665452535e-14
4.665372745e-14
4.665300799e-14
4.665236349e-14
4.665178477e-14
4.665125694e-14
4.665077825e-14
4.665031045e-14
4.664990673e-14
4.664966234e-14
4.664953288e-14
4.664947426e-14
4.664943282e-14
4.664945359e-14
4.664949587e-14
4.664960045e-14
4.664971612e-14
4.664984446e-14
4.664940366e-14
4.664291389e-14
4.659308715e-14
4.633443372e-14
4.535293072e-14
4.410876604e-14
1.334195771e-12
3.445049679e-12
3.525841293e-13
1.189616206e-13
9.709648971e-14
9.311276962e-14
9.203960386e-14
9.168949128e-14
9.157316745e-14
9.153184188e-14
9.151703516e-14
9.150574681e-14
9.149071558e-14
9.146229725e-14
9.141848157e-14
9.138736973e-14
9.137792682e-14
9.139628604e-14
9.143347741e-14
9.145394137e-14
9.146027821e-14
9.14601413e-14
9.145840199e-14
9.145674494e-14
9.145524003e-14
9.145404835e-14
9.145303591e-14
9.145192627e-14
9.14508023e-14
9.145022281e-14
9.145039191e-14
9.14509931e-14
9.145144924e-14
9.145168906e-14
9.145204792e-14
9.145291537e-14
9.145438858e-14
9.145545058e-14
9.145624461e-14
9.145750632e-14
9.145923968e-14
9.146092024e-14
9.146249762e-14
9.146419443e-14
9.146556068e-14
9.146714143e-14
9.146891305e-14
9.147101047e-14
9.147256911e-14
9.147468096e-14
9.147645847e-14
9.147863035e-14
9.148046269e-14
9.148239933e-14
9.148348389e-14
9.148217926e-14
9.147284773e-14
9.14669565e-14
9.16690834e-14
9.210469932e-14
1.163979578e-11
1.043462932e-15
3.835627603e-13
1.702445484e-13
1.309879245e-13
1.218386428e-13
1.188222689e-13
1.175582554e-13
1.169767665e-13
1.167099351e-13
1.165952311e-13
1.165470441e-13
1.165190052e-13
1.164797261e-13
1.164100813e-13
1.163246392e-13
1.163121665e-13
1.16391296e-13
1.16465826e-13
1.165050463e-13
1.165194022e-13
1.165227372e-13
1.165226369e-13
1.16522063e-13
1.165217051e-13
1.165215801e-13
1.165218053e-13
1.165224702e-13
1.165234856e-13
1.165248039e-13
1.165265561e-13
1.165287246e-13
1.165311231e-13
1.165339309e-13
1.165368579e-13
1.16540035e-13
1.1654371e-13
1.165471639e-13
1.165504461e-13
1.165539458e-13
1.165577929e-13
1.165615443e-13
1.165653759e-13
1.165695768e-13
1.16573669e-13
1.165778114e-13
1.16581896e-13
1.165862501e-13
1.165900995e-13
1.16594505e-13
1.16598504e-13
1.166029434e-13
1.166069599e-13
1.166114609e-13
1.166156324e-13
1.166241374e-13
1.166539659e-13
1.167912517e-13
1.172877882e-13
1.178765776e-13
3.969557108e-11
1.320836439e-11
3.937678494e-12
6.271720213e-13
2.250469477e-13
1.571946123e-13
1.389534954e-13
1.321448073e-13
1.292103594e-13
1.27916353e-13
1.273694151e-13
1.271571766e-13
1.2707825e-13
1.270289885e-13
1.269558222e-13
1.268541304e-13
1.268594218e-13
1.269972282e-13
1.271111023e-13
1.271747469e-13
1.272042832e-13
1.272184726e-13
1.272272156e-13
1.272343144e-13
1.272409699e-13
1.272474815e-13
1.272538859e-13
1.272602876e-13
1.272666859e-13
1.272730674e-13
1.272794795e-13
1.272859481e-13
1.272924302e-13
1.272990395e-13
1.273056063e-13
1.273121966e-13
1.273189497e-13
1.273254521e-13
1.273317582e-13
1.273380112e-13
1.273442686e-13
1.273503951e-13
1.273564568e-13
1.273625866e-13
1.273686398e-13
1.273746419e-13
1.273804629e-13
1.273863104e-13
1.273918007e-13
1.273975048e-13
1.274029325e-13
1.27408548e-13
1.274137409e-13
1.274194836e-13
1.274258256e-13
1.274389052e-13
1.274772505e-13
1.276086176e-13
1.279553559e-13
1.283009507e-13
1.945389191e-11
5.909228759e-11
1.028123636e-11
3.955585503e-12
7.590709314e-13
2.800164544e-13
1.807177804e-13
1.502347301e-13
1.385438289e-13
1.337227243e-13
1.31750996e-13
1.309915729e-13
1.307234613e-13
1.306219026e-13
1.305457993e-13
1.304551708e-13
1.304935014e-13
1.30679241e-13
1.308287277e-13
1.30917142e-13
1.309637756e-13
1.309907141e-13
1.310098289e-13
1.310258276e-13
1.310403321e-13
1.310538743e-13
1.310666492e-13
1.310788025e-13
1.310904156e-13
1.311015487e-13
1.311122709e-13
1.311226188e-13
1.311326249e-13
1.311423703e-13
1.311518095e-13
1.311609844e-13
1.311699533e-13
1.311785778e-13
1.311868883e-13
1.311949525e-13
1.312027986e-13
1.312103861e-13
1.312177529e-13
1.312249487e-13
1.312319474e-13
1.312387756e-13
1.312453856e-13
1.312518406e-13
1.312580153e-13
1.312641349e-13
1.312700316e-13
1.312759013e-13
1.312815167e-13
1.312875436e-13
1.312947291e-13
1.313081464e-13
1.313410937e-13
1.314291931e-13
1.31611841e-13
1.317714852e-13
2.498904067e-11
1.283415177e-10
5.770859088e-11
2.124581384e-11
3.119477723e-12
6.405567271e-13
2.711383102e-13
1.81296908e-13
1.508398983e-13
1.389936418e-13
1.342891315e-13
1.324949758e-13
1.318571453e-13
1.316352123e-13
1.315293881e-13
1.314450321e-13
1.315120131e-13
1.317319254e-13
1.319120243e-13
1.320245839e-13
1.320882787e-13
1.321272779e-13
1.321554288e-13
1.321786268e-13
1.321991186e-13
1.322177566e-13
1.322349652e-13
1.322510039e-13
1.3226604e-13
1.322802038e-13
1.322936064e-13
1.32306324e-13
1.323184261e-13
1.323299874e-13
1.323410346e-13
1.32351612e-13
1.32361761e-13
1.323714692e-13
1.323807711e-13
1.323897113e-13
1.323983173e-13
1.324065866e-13
1.324145477e-13
1.324222161e-13
1.324295913e-13
1.324367098e-13
1.324435843e-13
1.324502421e-13
1.324566416e-13
1.324628487e-13
1.32468824e-13
1.32474673e-13
1.324803865e-13
1.324864879e-13
1.324940844e-13
1.325072144e-13
1.325348769e-13
1.325936708e-13
1.326903897e-13
1.327628971e-13
2.943086695e-11
4.091979902e-11
1.838130235e-10
3.803461662e-11
1.118490194e-11
1.840838989e-12
5.032682165e-13
2.477002585e-13
1.739646758e-13
1.474541948e-13
1.373751842e-13
1.336262652e-13
1.323100807e-13
1.318668804e-13
1.316972986e-13
1.316059213e-13
1.316892024e-13
1.319307906e-13
1.321363124e-13
1.322731029e-13
1.32355418e-13
1.324075281e-13
1.324449631e-13
1.324750056e-13
1.325007568e-13
1.325236036e-13
1.325442758e-13
1.325632104e-13
1.32580704e-13
1.32596975e-13
1.326121867e-13
1.32626468e-13
1.326399256e-13
1.326526483e-13
1.326647029e-13
1.326761495e-13
1.326870387e-13
1.326974051e-13
1.327072901e-13
1.327167338e-13
1.3272577e-13
1.327344183e-13
1.327427088e-13
1.327506602e-13
1.32758282e-13
1.327655942e-13
1.327726139e-13
1.327793755e-13
1.327858863e-13
1.327921654e-13
1.327982102e-13
1.328040975e-13
1.328099358e-13
1.328162783e-13
1.328244738e-13
1.328381888e-13
1.328641098e-13
1.329103139e-13
1.329731022e-13
1.330115169e-13
3.707435206e-11
2.365672142e-11
2.574400719e-10
1.27397678e-10
4.489030458e-11
8.351650463e-12
1.337682692e-12
4.149813795e-13
2.206887575e-13
1.62521836e-13
1.423129653e-13
1.351556435e-13
1.327181954e-13
1.319252227e-13
1.316555714e-13
1.315441981e-13
1.316338698e-13
1.318872963e-13
1.321115113e-13
1.322702691e-13
1.32371694e-13
1.324382669e-13
1.324862493e-13
1.32524032e-13
1.325555664e-13
1.325828489e-13
1.326070196e-13
1.326287869e-13
1.326486216e-13
1.326668548e-13
1.326837286e-13
1.326994311e-13
1.327141098e-13
1.327278849e-13
1.327408533e-13
1.327530953e-13
1.327646792e-13
1.327756618e-13
1.327860944e-13
1.327960212e-13
1.328054817e-13
1.328145051e-13
1.328231244e-13
1.328313693e-13
1.328392628e-13
1.328468209e-13
1.328540516e-13
1.328609807e-13
1.328676318e-13
1.3287403e-13
1.328802039e-13
1.328862436e-13
1.328923383e-13
1.328991496e-13
1.329082713e-13
1.329233576e-13
1.329498392e-13
1.329920101e-13
1.330425358e-13
1.330670133e-13
7.613769411e-11
1.291992496e-11
9.108341199e-11
3.399055801e-10
7.446365239e-11
2.679185008e-11
3.702261284e-12
7.707773459e-13
3.046473894e-13
1.870897789e-13
1.498385293e-13
1.373401369e-13
1.332509982e-13
1.319745277e-13
1.315745001e-13
1.314350877e-13
1.315253516e-13
1.317860802e-13
1.320237166e-13
1.322001635e-13
1.323188891e-13
1.323999625e-13
1.324594096e-13
1.325060555e-13
1.325443691e-13
1.325768414e-13
1.326050393e-13
1.32630002e-13
1.326524327e-13
1.326728165e-13
1.326914984e-13
1.327087394e-13
1.32724738e-13
1.327396526e-13
1.327536114e-13
1.327667191e-13
1.327790634e-13
1.327907177e-13
1.328017456e-13
1.328122005e-13
1.328221305e-13
1.32831574e-13
1.32840568e-13
1.328491469e-13
1.328573418e-13
1.328651786e-13
1.328726732e-13
1.328798452e-13
1.328867128e-13
1.328933049e-13
1.328996741e-13
1.329059522e-13
1.329124142e-13
1.329198672e-13
1.329301458e-13
1.329469084e-13
1.329746968e-13
1.33015766e-13
1.330611509e-13
1.330781119e-13
2.203396541e-10
2.000762839e-11
4.900844671e-11
4.332723733e-10
2.062937834e-10
3.333896207e-11
1.011532808e-11
1.679143606e-12
4.717968494e-13
2.274383915e-13
1.606387283e-13
1.401712072e-13
1.338888758e-13
1.320313797e-13
1.31487808e-13
1.313188315e-13
1.314076215e-13
1.316739756e-13
1.319223195e-13
1.321133158e-13
1.322470313e-13
1.323415949e-13
1.324125895e-13
1.32468826e-13
1.325148516e-13
1.32553367e-13
1.325862613e-13
1.326149097e-13
1.326402913e-13
1.326630894e-13
1.326837842e-13
1.327027269e-13
1.327201802e-13
1.327363497e-13
1.327513987e-13
1.327654597e-13
1.327786417e-13
1.327910357e-13
1.328027192e-13
1.328137578e-13
1.328242093e-13
1.328341223e-13
1.328435405e-13
1.328525026e-13
1.328610421e-13
1.3286919e-13
1.328769708e-13
1.328844111e-13
1.328915337e-13
1.328983718e-13
1.329049884e-13
1.329115582e-13
1.329184518e-13
1.329266507e-13
1.32938196e-13
1.329566278e-13
1.329857137e-13
1.330263163e-13
1.330686296e-13
1.330799929e-13
3.76335643e-10
3.939130372e-11
2.332571285e-11
1.970472239e-10
4.76153016e-10
9.617889291e-11
2.98407916e-11
4.044504768e-12
7.773303045e-13
2.841979664e-13
1.730762314e-13
1.4290102e-13
1.343886138e-13
1.320343539e-13
1.313864133e-13
1.311993694e-13
1.312884241e-13
1.315602737e-13
1.318180057e-13
1.32021621e-13
1.321685764e-13
1.322755164e-13
1.323577134e-13
1.324238696e-13
1.324783407e-13
1.325237344e-13
1.325620618e-13
1.325949651e-13
1.326237138e-13
1.326492298e-13
1.326721664e-13
1.326929893e-13
1.32712041e-13
1.327295821e-13
1.32745817e-13
1.327609096e-13
1.327749939e-13
1.327881814e-13
1.32800566e-13
1.32812227e-13
1.328232335e-13
1.328336435e-13
1.328435076e-13
1.328528707e-13
1.328617703e-13
1.328702431e-13
1.328783181e-13
1.328860273e-13
1.328934033e-13
1.329004939e-13
1.329073819e-13
1.329142899e-13
1.329216874e-13
1.329307217e-13
1.329435723e-13
1.329635541e-13
1.329937111e-13
1.330338158e-13
1.33073652e-13
1.330799123e-13
5.064348711e-10
5.31223077e-11
1.495993362e-11
1.231530178e-10
7.521031513e-10
2.26032657e-10
3.646398133e-11
9.326384756e-12
1.469667027e-12
3.759712563e-13
1.870591826e-13
1.450064672e-13
1.346028171e-13
1.319664438e-13
1.312771457e-13
1.310838873e-13
1.311735819e-13
1.314495403e-13
1.317146723e-13
1.319287924e-13
1.320872324e-13
1.32205295e-13
1.322979912e-13
1.323739746e-13
1.324373188e-13
1.324903026e-13
1.325348095e-13
1.325726002e-13
1.32605193e-13
1.326337691e-13
1.32659191e-13
1.326820727e-13
1.32702858e-13
1.327218755e-13
1.32739379e-13
1.327555683e-13
1.327706071e-13
1.327846294e-13
1.327977483e-13
1.328100585e-13
1.32821641e-13
1.328325637e-13
1.328428853e-13
1.328526571e-13
1.328619235e-13
1.328707274e-13
1.328791025e-13
1.328870865e-13
1.328947192e-13
1.329020651e-13
1.329092386e-13
1.329165231e-13
1.329245002e-13
1.329344546e-13
1.32948601e-13
1.329699784e-13
1.330009591e-13
1.330404193e-13
1.330779924e-13
1.330792254e-13
5.682981251e-10
6.728307405e-11
1.450602714e-11
8.4512302e-11
6.026137318e-10
4.519532955e-10
7.107139003e-11
2.018123338e-11
2.699870156e-12
5.089132111e-13
1.999772111e-13
1.457053937e-13
1.344180451e-13
1.318351668e-13
1.311756111e-13
1.309844296e-13
1.310735071e-13
1.313505563e-13
1.316191828e-13
1.318401837e-13
1.320071936e-13
1.321342553e-13
1.322359902e-13
1.323209682e-13
1.323929734e-13
1.324538272e-13
1.325050516e-13
1.325483052e-13
1.325852289e-13
1.326172296e-13
1.326453939e-13
1.326705142e-13
1.326931614e-13
1.327137508e-13
1.327325962e-13
1.327499409e-13
1.327659807e-13
1.327808753e-13
1.327947579e-13
1.3280774e-13
1.328199151e-13
1.328313626e-13
1.328421496e-13
1.328523362e-13
1.328619743e-13
1.328711129e-13
1.328797909e-13
1.328880525e-13
1.328959463e-13
1.329035585e-13
1.329110424e-13
1.329187446e-13
1.329273617e-13
1.329382893e-13
1.329536941e-13
1.329763065e-13
1.330078749e-13
1.330465451e-13
1.33081937e-13
1.330776917e-13
1.223950835e-09
1.556663067e-10
1.873307299e-11
5.652951464e-11
4.64126848e-10
9.218071529e-10
1.605956173e-10
4.368938562e-11
4.761465723e-12
6.77517855e-13
2.091061709e-13
1.450053817e-13
1.339600214e-13
1.316738224e-13
1.310881097e-13
1.309070172e-13
1.309969763e-13
1.312732016e-13
1.315411535e-13
1.317640015e-13
1.319352049e-13
1.320678244e-13
1.321759916e-13
1.322680466e-13
1.323474897e-13
1.324156628e-13
1.324735734e-13
1.325225451e-13
1.325641396e-13
1.32599873e-13
1.326310156e-13
1.326585408e-13
1.326831627e-13
1.327054012e-13
1.32725643e-13
1.327441836e-13
1.32761256e-13
1.327770477e-13
1.327917129e-13
1.328053806e-13
1.328181579e-13
1.328301365e-13
1.32841394e-13
1.328519997e-13
1.328620125e-13
1.328714869e-13
1.328804685e-13
1.328890093e-13
1.328971702e-13
1.329050653e-13
1.329128924e-13
1.329210605e-13
1.329303714e-13
1.329422963e-13
1.329589089e-13
1.329826049e-13
1.330145532e-13
1.330523203e-13
1.330855373e-13
1.330751584e-13
1.62684591e-09
2.351753828e-10
3.50273294e-11
5.687307296e-11
5.341993119e-10
1.614419122e-09
3.067179642e-10
6.75092771e-11
9.386103615e-12
1.067524715e-12
2.274860813e-13
1.446679194e-13
1.337191127e-13
1.316487746e-13
1.310777623e-13
1.308809262e-13
1.309617248e-13
1.312304723e-13
1.314911862e-13
1.317093553e-13
1.318790074e-13
1.320126284e-13
1.321235536e-13
1.322196972e-13
1.323042656e-13
1.323781744e-13
1.324418851e-13
1.324962271e-13
1.325424664e-13
1.325820434e-13
1.326163022e-13
1.326463488e-13
1.3267303e-13
1.326969746e-13
1.327186504e-13
1.327384115e-13
1.327565325e-13
1.327732313e-13
1.327886855e-13
1.32803042e-13
1.328164229e-13
1.32828933e-13
1.328406611e-13
1.328516849e-13
1.328620704e-13
1.32871878e-13
1.328811622e-13
1.328899848e-13
1.328984232e-13
1.329066234e-13
1.329148325e-13
1.329235226e-13
1.329335792e-13
1.329465044e-13
1.329642577e-13
1.329888925e-13
1.330210427e-13
1.330578316e-13
1.330889187e-13
1.330725398e-13
2.199445584e-09
3.278668872e-10
5.636821114e-11
9.497648975e-11
8.439844408e-10
2.272258678e-09
4.446951571e-10
8.827951648e-11
1.466719402e-11
1.59983365e-12
2.525862636e-13
1.452475871e-13
1.339040961e-13
1.318024636e-13
1.311553649e-13
1.309141061e-13
1.30976436e-13
1.312301883e-13
1.314763614e-13
1.316826283e-13
1.318448012e-13
1.319744559e-13
1.320839221e-13
1.321805276e-13
1.32267145e-13
1.323443477e-13
1.324121263e-13
1.32470776e-13
1.325211128e-13
1.325643096e-13
1.32601625e-13
1.326341987e-13
1.326629611e-13
1.326886311e-13
1.327117525e-13
1.327327379e-13
1.327519057e-13
1.327695066e-13
1.327857427e-13
1.328007805e-13
1.328147578e-13
1.328277926e-13
1.328399843e-13
1.328514188e-13
1.3286217e-13
1.328723053e-13
1.328818892e-13
1.328909961e-13
1.32899723e-13
1.329082514e-13
1.329168783e-13
1.329261378e-13
1.329369773e-13
1.329508934e-13
1.329697081e-13
1.329951336e-13
1.330273215e-13
1.330630746e-13
1.330921209e-13
1.330702128e-13
2.501803231e-09
4.439002271e-10
1.004885319e-10
2.414950362e-10
2.015076659e-09
2.375741805e-09
4.609608151e-10
9.136921702e-11
1.950453954e-11
2.191117695e-12
2.823858167e-13
1.466386025e-13
1.342038003e-13
1.319344747e-13
1.312273709e-13
1.309680954e-13
1.310270419e-13
1.312668209e-13
1.314947213e-13
1.316845367e-13
1.318343799e-13
1.319556804e-13
1.320598022e-13
1.321533377e-13
1.322387836e-13
1.323164708e-13
1.323860778e-13
1.32447453e-13
1.325008959e-13
1.325471591e-13
1.325872549e-13
1.3262223e-13
1.326530189e-13
1.326803877e-13
1.327049372e-13
1.327271318e-13
1.327473315e-13
1.327658197e-13
1.327828239e-13
1.327985303e-13
1.328130926e-13
1.328266413e-13
1.328392864e-13
1.328511223e-13
1.328622312e-13
1.328726891e-13
1.328825711e-13
1.328919661e-13
1.329009957e-13
1.329098795e-13
1.329189633e-13
1.329288391e-13
1.32940499e-13
1.329554079e-13
1.329752246e-13
1.33001326e-13
1.330334345e-13
1.330681289e-13
1.330952513e-13
1.330683969e-13
2.325067623e-09
4.593080131e-10
2.818631101e-10
1.448942414e-09
7.324104896e-09
1.87867176e-09
3.5086309e-10
6.874155092e-11
1.720951682e-11
2.799327112e-12
3.993889807e-13
1.631867406e-13
1.374089036e-13
1.328331343e-13
1.315758302e-13
1.311483008e-13
1.311488869e-13
1.313492914e-13
1.315459807e-13
1.317117406e-13
1.318443521e-13
1.319536176e-13
1.320490956e-13
1.321362117e-13
1.322169856e-13
1.322917452e-13
1.323604173e-13
1.324228856e-13
1.324785559e-13
1.325274313e-13
1.325701072e-13
1.326074344e-13
1.326402779e-13
1.326694048e-13
1.326954485e-13
1.327189147e-13
1.327402021e-13
1.327596264e-13
1.327774413e-13
1.327938538e-13
1.328090337e-13
1.328231245e-13
1.328362469e-13
1.328485056e-13
1.328599923e-13
1.328707932e-13
1.328809961e-13
1.328907085e-13
1.329000841e-13
1.329093888e-13
1.329190209e-13
1.329296379e-13
1.32942282e-13
1.329583903e-13
1.329794566e-13
1.330065255e-13
1.330388839e-13
1.330728489e-13
1.330983234e-13
1.330669978e-13
1.986172274e-09
5.762833382e-10
1.322913521e-09
7.47168909e-09
5.192538695e-09
1.009533749e-09
1.973300992e-10
5.365546354e-11
1.399905765e-11
4.50148125e-12
9.516769376e-13
2.603479186e-13
1.537476475e-13
1.364056834e-13
1.326854127e-13
1.316160123e-13
1.314005795e-13
1.314939091e-13
1.31628513e-13
1.31755693e-13
1.318632823e-13
1.319545269e-13
1.320345861e-13
1.321063207e-13
1.32170862e-13
1.322298057e-13
1.322873681e-13
1.323513818e-13
1.324116332e-13
1.324648585e-13
1.325112689e-13
1.325518653e-13
1.325875874e-13
1.326192267e-13
1.326474458e-13
1.326727909e-13
1.326957037e-13
1.327165393e-13
1.327355845e-13
1.327530728e-13
1.327691965e-13
1.327841177e-13
1.327979731e-13
1.328108823e-13
1.328229512e-13
1.328342834e-13
1.328449875e-13
1.328552064e-13
1.328651539e-13
1.328751926e-13
1.328858279e-13
1.32897891e-13
1.329126515e-13
1.329317578e-13
1.329568434e-13
1.329889263e-13
1.330269819e-13
1.330666038e-13
1.330963082e-13
1.330634895e-13
2.643267099e-09
3.09779611e-09
1.327971353e-08
1.351710389e-08
2.613515105e-09
4.897216937e-10
1.128028897e-10
3.664138466e-11
1.192615531e-11
4.978908881e-12
2.165540589e-12
6.969502796e-13
2.430487945e-13
1.53080364e-13
1.365325599e-13
1.328483997e-13
1.319299683e-13
1.317444284e-13
1.317441598e-13
1.317966344e-13
1.318547468e-13
1.31903172e-13
1.319365796e-13
1.319516621e-13
1.319499193e-13
1.319209232e-13
1.319737542e-13
1.321029994e-13
1.321957966e-13
1.322617896e-13
1.323121556e-13
1.323539362e-13
1.323901727e-13
1.324221726e-13
1.324506864e-13
1.324762702e-13
1.324993709e-13
1.325203512e-13
1.325395055e-13
1.325570741e-13
1.325732562e-13
1.325882191e-13
1.326021051e-13
1.326150379e-13
1.326271287e-13
1.326384872e-13
1.326492313e-13
1.326595175e-13
1.326695794e-13
1.326797847e-13
1.326906372e-13
1.327029324e-13
1.327178191e-13