/*--------------------------------*- C++ -*----------------------------------*\
  =========                 |
  \\      /  F ield         | OpenFOAM: The Open Source CFD Toolbox
   \\    /   O peration     | Website:  https://openfoam.org
    \\  /    A nd           | Version:  10
     \\/     M anipulation  |
\*---------------------------------------------------------------------------*/
FoamFile
{
    format      ascii;
    class       volScalarField;
    location    "0.0250188088";
    object      CH2CHO_0;
}
// * * * * * * * * * * * * * * * * * * * * * * * * * * * * * * * * * * * * * //

dimensions      [0 0 0 0 0 0 0];

internalField   nonuniform List<scalar> 
5170
(
0
0
0
0
0
0
0
0
0
0
0
0
0
0
0
0
0
0
0
0
0
0
0
0
0
0
0
0
0
0
0
0
0
0
0
0
0
0
0
0
0
0
0
0
0
0
0
0
0
0
0
0
0
0
0
0
0
0
0
0
0
0
0
0
0
0
0
0
0
0
0
0
0
0
0
0
0
0
0
0
0
0
0
0
0
0
0
0
0
0
0
0
0
0
0
0
0
0
0
3.095975603e-14
9.450683298e-22
1.734317185e-23
0
0
0
5.541433426e-22
0
0
0
0
6.843451598e-23
5.044467929e-24
2.19640101e-22
0
2.039420722e-24
1.539991264e-23
0
1.653585008e-22
0
3.275980256e-23
0
2.424871126e-22
9.391220559e-23
0
0
0
5.234829912e-20
0
0
0
0
0
0
0
0
0
0
0
0
1.920863316e-16
0
0
0
7.46641729e-16
0
0
9.630620315e-15
0
2.971557108e-16
0
0
2.254009842e-14
0
0
0
0
3.834240316e-15
3.345589171e-16
0
0
0
0
0
0
0
5.993951316e-16
0
0
1.35499326e-16
1.368984977e-14
1.653516423e-15
2.565911055e-16
0
1.767579011e-16
1.155943336e-14
1.245616899e-14
3.140542445e-16
6.19503725e-16
1.025884665e-14
1.784431537e-14
1.246458217e-14
1.157730279e-14
9.96615639e-15
1.291563154e-14
4.447324152e-14
1.838040515e-14
1.330100745e-14
1.223170809e-14
1.803245005e-14
2.420461518e-14
1.701505979e-13
5.872629677e-14
3.145344626e-14
4.525712428e-14
1.214362907e-14
1.432588261e-11
2.842613031e-12
8.900036792e-13
1.774786081e-13
8.055749164e-15
0
0
7.857073866e-13
4.22178706e-11
1.586690449e-09
0
0
1.715987041e-11
2.498829678e-10
6.902286644e-09
0
4.250846765e-13
3.032576161e-11
5.180635914e-10
9.942028407e-09
0
2.496687649e-12
5.040587594e-11
7.430710513e-10
1.049529257e-08
0
6.559718439e-12
7.565956307e-11
9.421006965e-10
1.053106282e-08
0
1.117928754e-11
8.012538018e-11
1.217986467e-09
1.183071601e-08
1.002164691e-12
2.027590647e-11
1.224657828e-10
1.714525787e-09
1.506837328e-08
1.897102621e-12
1.832156494e-11
1.979514554e-10
2.378398006e-09
1.850832467e-08
2.504942992e-12
1.578766202e-11
3.086040045e-10
3.138106614e-09
2.138649443e-08
6.040562539e-12
3.346531518e-11
4.570923138e-10
3.938508249e-09
2.34462195e-08
2.018628102e-11
8.705700738e-11
6.853559151e-10
5.051312054e-09
2.656974933e-08
1.866222416e-11
1.221864702e-10
1.014712409e-09
6.503105121e-09
3.01499209e-08
1.103131283e-11
2.064272993e-10
1.472556687e-09
8.202536514e-09
3.310811414e-08
6.337952228e-11
3.498908922e-10
2.113275774e-09
1.034579254e-08
3.626955691e-08
1.559558672e-10
6.159097924e-10
3.086637466e-09
1.306785337e-08
3.893813064e-08
3.479374852e-10
1.087954837e-09
4.571439399e-09
1.667856055e-08
4.230231472e-08
8.329387043e-10
2.111116418e-09
7.238953777e-09
2.182384231e-08
4.591752384e-08
2.174905144e-09
4.471001619e-09
1.233128419e-08
2.997698065e-08
5.524564994e-08
5.265362769e-09
9.000770376e-09
2.027966122e-08
4.037976014e-08
5.840789523e-08
1.239432101e-08
1.778462582e-08
3.054075081e-08
4.745659829e-08
5.715644524e-08
2.306157092e-08
2.822853565e-08
3.837547667e-08
4.904761726e-08
5.470670621e-08
3.283405554e-08
3.623181332e-08
4.296854167e-08
5.134512923e-08
6.005123052e-08
3.324496192e-08
3.532635343e-08
3.974566874e-08
4.614017581e-08
5.432283745e-08
2.107099325e-08
2.177087214e-08
2.314072749e-08
2.492324695e-08
2.688059352e-08
7.677253401e-09
7.736775315e-09
7.798265923e-09
7.813251264e-09
7.690247168e-09
1.718539057e-09
1.703464185e-09
1.663865755e-09
1.585564575e-09
1.469959844e-09
3.203139993e-10
3.153634414e-10
3.017070173e-10
2.808120724e-10
2.518870084e-10
5.464178662e-11
5.362472324e-11
5.091546759e-11
4.659462381e-11
4.137746124e-11
9.315337838e-12
9.134109609e-12
8.741698093e-12
7.974281224e-12
6.784849645e-12
1.69789144e-12
1.69145888e-12
1.681537881e-12
1.538274145e-12
1.309343193e-12
1.376466325e-13
1.492154644e-13
1.849777015e-13
2.63182459e-13
2.570145802e-13
5.540430961e-14
5.593836532e-14
5.769545645e-14
6.10741607e-14
6.047190707e-14
1.975096605e-14
1.949326745e-14
1.893100518e-14
1.851420871e-14
1.789456876e-14
1.146978931e-14
1.160565593e-14
1.192918638e-14
1.249630521e-14
1.335865169e-14
1.755244377e-14
1.851475589e-14
1.992783033e-14
2.214847859e-14
2.537409938e-14
3.766298861e-14
3.9212239e-14
4.272200248e-14
4.822700624e-14
5.568569513e-14
5.988897332e-14
6.162154406e-14
6.540097633e-14
7.101373114e-14
7.81673056e-14
4.82499832e-14
4.974020635e-14
5.304501207e-14
5.766408068e-14
6.360035707e-14
2.633439839e-14
2.690029844e-14
2.807932764e-14
2.976580838e-14
3.196482691e-14
9.722961789e-15
1.011553132e-14
1.093316908e-14
1.118293548e-14
1.00161033e-14
3.354877971e-16
3.418579866e-16
3.29627149e-16
2.545806516e-16
0
0
0
0
0
0
0
0
2.130268681e-16
2.910893701e-16
2.027506681e-16
4.967742159e-18
3.76652473e-17
4.293076728e-17
3.553871557e-17
0
0
0
0
0
0
0
0
0
0
0
0
0
0
0
0
0
0
0
0
0
0
0
0
0
0
0
0
0
0
0
0
0
0
0
0
0
0
0
0
0
0
0
0
0
0
0
0
0
0
0
0
0
0
0
0
0
0
0
0
0
0
0
0
0
0
0
0
0
0
0
0
0
0
0
0
0
0
0
0
0
1.866700275e-18
1.781493012e-18
1.667168467e-18
1.527705921e-18
1.342987519e-18
7.014735062e-19
7.047221801e-19
7.474421936e-19
7.450171208e-19
6.087879673e-19
4.187695942e-18
3.608019878e-18
0
0
0
4.496372071e-18
4.354622581e-18
4.521682719e-18
5.351917074e-18
7.189434208e-18
9.920435497e-18
9.724778121e-18
9.808975676e-18
1.063682189e-17
1.339287799e-17
1.054708719e-17
1.040233962e-17
1.059378994e-17
1.15675788e-17
1.44857645e-17
4.770441951e-17
5.078962843e-17
5.791569409e-17
6.904408922e-17
8.315995034e-17
4.720171964e-16
4.729479615e-16
4.747154746e-16
4.770015852e-16
4.806440579e-16
7.985664389e-16
7.881470253e-16
7.632661197e-16
7.209959294e-16
6.593581317e-16
1.863090254e-16
1.856557282e-16
1.814828078e-16
1.702190328e-16
1.545446857e-16
8.18550762e-09
5.286056395e-08
6.126387176e-08
5.370878056e-08
4.77455691e-08
4.946919139e-08
5.801265938e-08
6.232856339e-08
6.173681273e-08
5.840148009e-08
5.792058085e-08
5.794187437e-08
5.684646677e-08
5.566150195e-08
5.218767969e-08
5.316782694e-08
5.325664049e-08
5.631009019e-08
5.784543037e-08
5.623292271e-08
5.551392518e-08
6.617434885e-08
6.102500785e-08
2.826024678e-08
7.585008359e-09
1.389935229e-09
2.331989948e-10
3.796708302e-11
5.789351028e-12
1.134291306e-12
2.321672723e-13
5.805124276e-14
1.739628244e-14
1.414779108e-14
2.82371e-14
6.14969584e-14
8.361232378e-14
6.833938122e-14
3.362873311e-14
8.443336288e-15
0
0
1.080489214e-16
0
0
0
0
5.063136361e-17
0
0
0
0
0
0
0
0
0
0
0
0
1.232473827e-18
8.463113402e-19
0
1.142154635e-17
1.673669143e-17
1.793109215e-17
9.29679308e-17
4.869066969e-16
6.097409439e-16
1.455595927e-16
4.194136567e-09
1.272101238e-09
6.829035017e-11
8.538253039e-12
2.941622441e-12
5.16265567e-08
3.921507563e-07
2.251450328e-08
6.892608818e-10
5.315873591e-10
1.021460916e-07
1.504868193e-07
1.527950551e-08
9.290659648e-10
2.140875676e-09
1.01128005e-07
8.184643878e-08
2.778728152e-08
2.3241784e-09
1.171385137e-09
9.576458747e-08
8.276208739e-08
3.153953569e-07
3.072089886e-08
3.008362167e-09
1.026199507e-07
1.060137326e-07
4.937489787e-07
6.102556499e-08
5.997990084e-09
1.189303199e-07
1.142805511e-07
4.379497892e-07
6.610391864e-08
7.629250568e-09
1.187519867e-07
9.784496321e-08
2.845528986e-07
6.214796178e-08
8.354596744e-09
1.060097805e-07
8.265498986e-08
2.125428901e-07
1.173443098e-07
1.748268036e-08
9.554408099e-08
7.061783884e-08
1.552163302e-07
2.074864663e-07
3.3466505e-08
8.478060191e-08
6.662539955e-08
1.463712773e-07
2.817698438e-07
5.040579566e-08
7.796806808e-08
6.531555584e-08
1.441526128e-07
3.208138301e-07
6.294189376e-08
7.406710414e-08
6.371402433e-08
1.312892231e-07
3.126177595e-07
7.452886071e-08
6.569075297e-08
6.176406954e-08
1.211750495e-07
2.883530114e-07
9.495980881e-08
5.931558127e-08
5.807691502e-08
1.143151438e-07
2.673148363e-07
1.377679701e-07
5.43309299e-08
5.475100342e-08
1.095288211e-07
2.484431906e-07
1.7790541e-07
5.156443908e-08
5.39389074e-08
1.072472451e-07
2.366494526e-07
2.121646527e-07
5.077908591e-08
5.865659495e-08
1.154748797e-07
2.538127786e-07
2.181170908e-07
5.191253339e-08
6.816912739e-08
1.424449479e-07
3.123090398e-07
1.801644607e-07
5.387107885e-08
8.161645977e-08
1.868388207e-07
4.548048493e-07
2.655549952e-07
5.588972652e-08
7.555666905e-08
1.389212355e-07
2.865759361e-07
5.141425736e-07
7.462667321e-08
1.034194484e-07
1.710911941e-07
3.158411342e-07
5.382729466e-07
7.198337665e-08
9.222455167e-08
1.121152442e-07
1.21413061e-07
1.112491954e-07
3.112029673e-08
3.253519472e-08
2.980848244e-08
2.355014739e-08
1.615336967e-08
7.805793516e-09
7.008222376e-09
5.475479987e-09
3.718265931e-09
2.228401502e-09
1.343559688e-09
1.113484773e-09
8.030794909e-10
5.077528432e-10
2.847939808e-10
2.193749725e-10
1.760406384e-10
1.19698017e-10
7.542639741e-11
4.27310041e-11
3.527344176e-11
2.739942593e-11
2.033278801e-11
1.179237877e-11
4.83532282e-12
4.094279636e-12
4.471921962e-12
3.469503698e-12
2.066865435e-12
5.636095559e-13
8.893984857e-13
5.481793882e-13
4.915661746e-13
4.171050548e-13
2.147929471e-13
2.093003991e-13
1.527554124e-13
9.241644654e-14
9.276198465e-14
6.593233907e-14
5.571027253e-14
4.456549338e-14
2.997519446e-14
2.345316209e-14
1.857571998e-14
1.690301787e-14
1.483026382e-14
1.325300783e-14
1.159840335e-14
1.104924469e-14
1.52101393e-14
1.767903003e-14
2.123131306e-14
2.542658896e-14
2.959566634e-14
3.22440494e-14
4.138460695e-14
5.2588584e-14
5.986747597e-14
8.321487116e-14
6.916555468e-14
8.590872366e-14
1.002784871e-13
1.235893738e-13
1.663496462e-13
9.156995191e-14
1.073612497e-13
1.25082976e-13
1.46540041e-13
1.635218142e-13
7.565450673e-14
8.544405534e-14
8.7232123e-14
9.111790511e-14
1.028032837e-13
3.622312752e-14
3.581505967e-14
3.18953693e-14
3.176304763e-14
4.026939811e-14
5.886542269e-15
1.866737975e-15
0
0
4.128492249e-15
0
0
0
0
2.498301446e-16
0
0
1.700837455e-17
0
0
3.31806218e-17
2.001778802e-17
0
0
0
0
0
0
0
0
0
0
0
0
0
0
0
0
0
0
0
0
3.175531725e-15
2.181636991e-15
6.318820742e-16
1.965478812e-16
5.563957446e-16
5.163515799e-16
6.890305916e-17
0
0
0
0
0
0
0
0
0
0
0
0
0
0
0
0
0
0
0
0
0
0
0
0
0
0
0
0
0
0
0
0
0
0
0
0
0
0
0
0
0
0
0
0
0
0
0
0
0
0
0
0
0
0
0
0
0
0
0
1.444767428e-19
9.003461046e-19
1.377342214e-18
1.337813762e-18
1.373633411e-18
1.683015077e-18
3.110469184e-18
1.207264782e-18
2.522377275e-18
5.723057173e-18
4.642027419e-18
0
0
0
0
1.589251027e-18
6.584853166e-18
6.766332727e-18
7.80825328e-18
1.051351498e-17
1.239328102e-17
1.323746898e-17
1.14904825e-17
1.174676662e-17
1.282793064e-17
1.332389368e-17
1.306980489e-17
1.294038018e-17
1.329670288e-17
1.541396731e-17
3.715061499e-17
3.506483224e-17
1.064212765e-16
1.26222691e-16
1.529129919e-16
1.796166107e-16
2.261264085e-16
5.019245746e-16
5.490515432e-16
5.385531729e-16
4.881617319e-16
4.065024097e-16
5.360968122e-16
4.021735328e-16
2.937048087e-16
2.186497794e-16
1.378229998e-16
1.327988662e-16
0
0
0
0
6.993506997e-14
0
0
0
0
0
0
0
0
0
0
0
0
0
0
0
0
0
0
0
0
0
0
0
0
0
0
0
0
0
0
0
0
0
0
0
0
0
0
0
0
0
0
0
0
0
0
0
0
0
0
0
0
0
0
0
0
0
0
0
1.20822e-11
6.894612851e-13
0
0
0
0
0
0
0
0
0
0
0
0
0
0
0
0
0
0
0
0
0
0
0
0
0
0
0
0
0
0
0
0
0
0
0
0
0
0
0
0
0
0
0
0
0
0
0
0
0
0
0
0
0
0
0
0
0
0
9.510833525e-11
0
0
0
0
0
0
0
0
0
0
0
0
0
0
0
0
0
0
0
0
0
0
0
0
0
0
0
0
0
0
0
0
0
0
0
0
0
0
0
0
0
0
0
0
0
0
0
0
0
0
0
0
0
0
0
0
0
0
0
1.074198021e-09
1.43234493e-11
2.112119282e-12
0
0
0
0
0
0
0
0
0
0
0
0
0
0
0
0
0
0
0
0
0
0
0
0
0
0
0
0
0
0
0
0
0
0
0
0
0
0
0
0
0
0
0
0
0
0
0
0
0
0
0
0
0
0
0
0
0
7.30367544e-09
2.550682691e-10
5.322622181e-13
1.068555064e-12
0
0
0
0
0
0
0
0
0
0
0
0
0
0
0
0
0
0
0
0
0
0
0
0
0
0
0
0
0
0
0
0
0
0
0
0
0
0
0
0
0
0
0
0
0
0
0
0
0
0
0
0
0
0
0
0
5.676920021e-09
2.200673936e-09
6.366394692e-11
1.888887171e-11
1.017785491e-12
0
0
0
0
0
0
0
0
0
0
0
0
0
0
0
0
0
0
0
0
0
0
0
0
0
0
0
0
0
0
0
0
0
0
0
0
0
0
0
0
0
0
0
0
0
0
0
0
0
0
0
0
0
0
0
1.695303339e-09
6.165771377e-09
5.695159713e-10
1.580150053e-11
5.970985912e-12
0
0
0
0
0
0
0
0
0
0
0
0
0
0
0
0
0
0
0
0
0
0
0
0
0
0
0
0
0
0
0
0
0
0
0
0
0
0
0
0
0
0
0
0
0
0
0
0
0
0
0
0
0
0
0
1.17347244e-09
3.885128468e-09
2.663188769e-09
1.492319266e-10
1.054455393e-11
2.63788299e-12
0
0
0
0
0
0
0
0
0
0
0
0
0
0
0
0
0
0
0
0
0
0
0
0
0
0
0
0
0
0
0
0
0
0
0
0
0
0
0
0
0
0
0
0
0
0
0
0
0
0
0
0
0
0
1.764099593e-09
2.086031276e-09
6.608834313e-09
9.814867931e-10
4.19756292e-11
1.531351195e-11
8.81385051e-13
0
0
0
0
0
0
0
0
0
0
0
0
0
0
0
0
0
0
0
0
0
0
0
0
0
0
0
0
0
0
0
0
0
0
0
0
0
0
0
0
0
0
0
0
0
0
0
0
0
0
0
0
0
4.1140868e-09
1.037810506e-09
6.05933122e-09
3.574736721e-09
2.865040182e-10
9.175617506e-12
3.771460161e-12
0
0
0
0
0
0
0
0
0
0
0
0
0
0
0
0
0
0
0
0
0
0
0
0
0
0
0
0
0
0
0
0
0
0
0
0
0
0
0
0
0
0
0
0
0
0
0
0
0
0
0
0
0
6.687453053e-09
9.493370628e-10
3.590507061e-09
1.008148911e-08
1.319289687e-09
6.288474742e-11
1.690300269e-11
1.240385569e-12
0
0
0
0
0
0
0
0
0
0
0
0
0
0
0
0
0
0
0
0
0
0
0
0
0
0
0
0
0
0
0
0
0
0
0
0
0
0
0
0
0
0
0
0
0
0
0
0
0
0
0
0
9.583941644e-09
1.159530572e-09
2.089544522e-09
1.411174462e-08
4.297545025e-09
2.830265684e-10
6.798668348e-12
3.713707661e-12
9.273173554e-14
0
0
0
0
0
0
0
0
0
0
0
0
0
0
0
0
0
0
0
0
0
0
0
0
0
0
0
0
0
0
0
0
0
0
0
0
0
0
0
0
0
0
0
0
0
0
0
0
0
0
0
1.124562948e-08
1.438970545e-09
1.217036547e-09
1.046614474e-08
1.158793671e-08
1.004792061e-09
3.495123083e-11
9.437711677e-12
7.405844624e-13
0
0
0
0
0
0
0
0
0
0
0
0
0
0
0
0
0
0
0
0
0
0
0
0
0
0
0
0
0
0
0
0
0
0
0
0
0
0
0
0
0
0
0
0
0
0
0
0
0
0
0
1.542309798e-08
2.236919408e-09
1.053583702e-09
6.900834639e-09
2.600533376e-08
3.035665803e-09
1.387577889e-10
2.742868337e-11
1.892100436e-12
3.419363729e-16
0
0
0
0
0
0
0
0
0
0
0
0
0
0
0
0
0
0
0
0
0
0
0
0
0
0
0
0
0
0
0
0
0
0
0
0
0
0
0
0
0
0
0
0
0
0
0
0
0
0
2.403725777e-08
3.674340762e-09
1.259471124e-09
6.651740954e-09
4.547561472e-08
6.84417775e-09
3.871951989e-10
1.310050604e-11
3.985717256e-12
1.257743504e-13
0
0
0
0
0
0
0
0
0
0
0
0
0
0
0
0
0
0
0
0
0
0
0
0
0
0
0
0
0
0
0
0
0
0
0
0
0
0
0
0
0
0
0
0
0
0
0
0
0
0
3.393863591e-08
4.663172722e-09
1.804390048e-09
8.595042857e-09
7.157937247e-08
1.120387839e-08
7.222507363e-10
3.095318689e-11
5.015201034e-12
2.051885633e-13
0
0
0
0
0
0
0
0
0
0
0
0
0
0
0
0
0
0
0
0
0
0
0
0
0
0
0
0
0
0
0
0
0
0
0
0
0
0
0
0
0
0
0
0
0
0
0
0
0
0
4.371141326e-08
7.875018178e-09
3.173031498e-09
1.347804608e-08
1.033684936e-07
1.272700364e-08
8.359381003e-10
4.793404321e-11
6.337072481e-12
2.293175128e-13
0
0
0
0
0
0
0
0
0
0
0
0
0
0
0
0
0
0
0
0
0
0
0
0
0
0
0
0
0
0
0
0
0
0
0
0
0
0
0
0
0
0
0
0
0
0
0
0
0
0
4.710548158e-08
1.093456983e-08
1.653247346e-08
1.06238955e-07
6.804729296e-08
6.599812039e-09
4.648384826e-10
2.763766867e-11
3.415973304e-12
7.750271953e-14
0
0
0
0
0
0
0
0
0
0
0
0
0
0
0
0
0
0
0
0
0
0
0
0
0
0
0
0
0
0
0
0
0
0
0
0
0
0
0
0
0
0
0
0
0
0
0
0
0
0
4.104965372e-08
1.983452928e-08
4.450099961e-08
3.036978351e-07
3.694072776e-08
2.828062884e-09
1.889346011e-10
2.44000923e-11
2.175013252e-12
8.164675894e-13
0
0
0
0
0
0
0
0
0
0
0
0
0
0
0
0
0
0
0
0
0
0
0
0
0
0
0
0
0
0
0
0
0
0
0
0
0
0
0
0
0
0
0
0
0
0
0
0
0
0
1.566435103e-07
2.23147995e-07
8.451451183e-07
1.332533025e-07
1.187670283e-08
8.861813726e-10
6.541809294e-11
6.619759123e-12
2.071801905e-12
9.480931062e-13
2.95806451e-13
0
0
0
0
0
0
0
0
0
0
0
0
0
0
0
0
0
0
0
0
0
0
0
0
0
0
0
0
0
0
0
0
0
0
0
0
0
0
0
0
0
0
0
0
0
0
0
0
0
6.852606079e-07
1.13430156e-06
2.506922488e-07
3.011816228e-08
2.860727954e-09
2.492027169e-10
2.562060194e-11
1.176464383e-12
1.323822461e-12
1.12931045e-12
1.042169852e-12
3.249403033e-13
0
0
0
0
0
0
0
0
0
0
0
0
0
0
0
0
0
0
0
0
0
0
0
0
0
0
0
0
0
0
0
0
0
0
0
0
0
0
0
0
0
0
0
0
0
0
0
0
5.710341106e-07
2.032940497e-07
3.835600308e-08
5.206658907e-09
5.867769066e-10
6.284331467e-11
4.028387741e-12
6.415789455e-13
9.173625078e-14
3.347591151e-13
6.829794141e-14
7.761159786e-13
2.544137659e-13
0
0
0
0
0
0
0
0
0
0
0
0
0
0
0
0
0
0
0
0
0
0
0
0
0
0
0
0
0
0
0
0
0
0
0
0
0
0
0
0
0
0
0
0
0
0
0
7.526919657e-08
2.46653309e-08
5.154008832e-09
8.150137859e-10
1.124089069e-10
1.581265784e-11
3.329927885e-12
3.547170466e-13
2.322958791e-14
1.353738301e-13
1.323115055e-13
3.356632748e-14
6.236503631e-13
1.177716019e-13
0
0
0
0
0
0
0
0
0
0
0
0
0
0
0
0
0
0
0
0
0
0
0
0
0
0
0
0
0
0
0
0
0
0
0
0
0
0
0
0
0
0
0
0
0
0
8.844814815e-09
2.928543458e-09
6.793116571e-10
1.263171741e-10
2.12457192e-11
3.127543521e-12
1.958942463e-14
4.565485999e-14
3.576278255e-14
1.32744413e-14
1.484828732e-13
2.3656846e-13
2.734316218e-14
4.859201289e-13
0
0
0
0
0
0
0
0
0
0
0
0
0
0
0
0
0
0
0
0
0
0
0
0
0
0
0
0
0
0
0
0
0
0
0
0
0
0
0
0
0
0
0
0
0
0
1.080430586e-09
3.618966996e-10
8.202344597e-11
1.868481641e-11
3.907879424e-12
8.985309452e-13
1.915480917e-13
3.214780668e-14
9.026016885e-15
3.584976329e-14
5.247164554e-14
1.622833133e-13
3.311817219e-13
2.510767124e-14
4.68855558e-13
3.326343848e-16
0
0
0
0
0
0
0
0
0
0
0
0
0
0
0
0
0
0
0
0
0
0
0
0
0
0
0
0
0
0
0
0
0
0
0
0
0
0
0
0
0
0
0
0
1.287202971e-10
4.500922849e-11
1.352060673e-11
4.601477904e-12
9.923680589e-13
1.294530371e-13
2.891551706e-14
0
0
6.146921438e-15
1.801141913e-15
3.656452059e-14
4.503375531e-13
5.311996688e-13
5.237032336e-13
5.845453555e-13
0
0
0
0
0
0
0
0
0
0
0
0
0
0
0
0
0
0
0
0
0
0
0
0
0
0
0
0
0
0
0
0
0
0
0
0
0
0
0
0
0
0
0
0
2.174849375e-11
7.57542695e-12
2.392131213e-12
0
7.371087989e-14
0
1.862912682e-15
0
0
0
0
1.721526132e-15
1.890260546e-14
5.602118844e-14
0
7.00974603e-13
8.952073297e-13
0
0
0
0
0
0
0
0
0
0
0
0
0
0
0
0
0
0
0
0
0
0
0
0
0
0
0
0
0
0
0
0
0
0
0
0
0
0
0
0
0
0
0
3.918646873e-12
1.774074892e-12
5.314287522e-13
1.315730969e-13
5.934850555e-14
1.568574849e-14
8.172773465e-15
0
0
0
0
3.093859325e-14
2.020569036e-15
1.02471245e-13
7.92383046e-14
0
6.437655469e-13
8.337971383e-13
0
0
0
0
0
0
0
0
0
0
0
0
0
0
0
0
0
0
0
0
0
0
0
0
0
0
0
0
0
0
0
0
0
0
0
0
0
0
0
0
0
0
5.374997542e-13
1.040065457e-13
1.022460264e-13
4.295775687e-14
2.26995164e-14
9.638277683e-15
5.391891561e-15
0
0
0
0
0
2.462550103e-16
7.193393701e-15
1.64079797e-13
4.258190274e-13
3.889712288e-13
6.947112589e-13
3.379222991e-16
0
0
0
0
0
0
0
0
0
0
0
0
0
0
0
0
0
0
0
0
0
0
0
0
0
0
0
0
0
0
0
0
0
0
0
0
0
0
0
0
0
0
5.468131547e-14
3.308471637e-14
5.987623321e-15
6.661254485e-15
3.134881672e-15
0
3.007631321e-16
0
0
7.177161468e-15
2.506350988e-16
3.664905752e-14
8.859019603e-14
5.505003327e-14
8.643106224e-14
0
5.024907266e-13
7.291348018e-13
3.694422211e-16
0
0
0
0
0
0
0
0
0
0
0
0
0
0
0
0
0
0
0
0
0
0
0
0
0
0
0
0
0
0
0
0
0
0
0
0
0
0
0
0
3.718970042e-14
2.327023448e-14
1.031613308e-14
0
3.599455456e-15
0
0
0
0
0
1.563549167e-14
1.197217212e-14
1.262464945e-14
5.028229687e-14
8.286039542e-15
1.379299716e-13
1.092462217e-13
0
6.022294803e-13
8.187012409e-13
0
0
0
0
0
0
0
0
0
0
0
0
0
0
0
0
0
0
0
0
0
0
0
0
0
0
0
0
0
0
0
0
0
0
0
0
0
0
0
0
1.12094637e-14
9.313002613e-15
4.857288084e-15
6.232537288e-15
4.973224392e-15
2.223854003e-14
1.114016198e-13
2.228573502e-14
1.524213179e-14
1.131524399e-14
3.42519246e-14
6.43465165e-14
2.577224733e-14
1.970538245e-14
0
8.957012256e-14
2.200071788e-13
3.780488759e-13
7.15177149e-13
8.103001709e-13
3.489720857e-15
0
0
0
0
0
0
0
0
0
0
0
0
0
0
0
0
0
0
0
0
0
0
0
0
0
0
0
0
0
0
0
0
0
0
0
0
0
0
0
1.465714513e-14
1.457626351e-14
1.018869909e-14
1.193495279e-14
3.839298894e-14
6.546342474e-14
1.791078188e-13
1.357252792e-13
7.871795659e-14
3.813791867e-14
3.126038573e-14
2.70931399e-14
0
0
7.334279444e-15
4.844483905e-15
1.374193897e-13
1.362842011e-13
0
5.83274759e-13
7.816855868e-13
2.389216421e-16
0
0
0
0
0
0
0
0
0
0
0
0
0
0
0
0
0
0
0
0
0
0
0
0
0
0
0
0
0
0
0
0
0
0
0
0
0
0
4.233060237e-14
6.297597892e-14
7.817975057e-14
9.371551358e-14
1.426336211e-13
1.702602224e-13
1.737106859e-13
2.541228076e-13
1.192814428e-13
8.075747328e-14
4.726607085e-14
3.648506906e-14
3.58143159e-14
1.919359345e-14
7.695927076e-14
0
3.215730981e-13
8.339154129e-13
1.020061415e-12
1.315451563e-12
1.335228793e-12
1.026461971e-12
8.199402244e-16
0
0
0
0
0
0
0
0
0
0
0
0
0
0
0
0
0
0
0
0
0
0
0
0
0
0
0
0
0
0
0
0
0
0
0
0
0
1.220572821e-13
1.643187782e-13
1.730774872e-13
1.783924687e-13
2.366454482e-13
2.350396088e-13
2.429479329e-13
2.972390835e-13
1.5271489e-13
1.027195043e-13
6.290076624e-14
4.9340707e-14
6.014615458e-14
2.475688641e-14
7.813723066e-14
1.395804912e-13
1.00447146e-13
3.809521924e-13
5.013022503e-13
0
7.872890274e-13
9.392030946e-13
1.124710398e-14
0
0
0
0
0
0
0
0
0
0
0
0
0
0
0
0
0
0
0
0
0
0
0
0
0
0
0
0
0
0
0
0
0
0
0
0
0
2.417126054e-13
2.582921479e-13
2.401178042e-13
2.102303417e-13
2.329849226e-13
1.883021428e-13
1.961018632e-13
2.705672156e-13
1.492197686e-13
1.001080192e-13
6.142262278e-14
5.46576766e-14
8.082170565e-14
3.230246614e-14
6.438765466e-14
1.375718048e-13
0
3.632502709e-13
7.798467954e-13
7.556625867e-13
8.211295586e-13
1.043086613e-12
9.16630626e-13
8.2536787e-16
0
0
0
0
0
0
0
0
0
0
0
0
0
0
0
0
0
0
0
0
0
0
0
0
0
0
0
0
0
0
0
0
0
0
0
0
2.005781106e-13
2.277949341e-13
1.692239986e-13
1.290465851e-13
1.158261888e-13
1.002947758e-13
1.203044728e-13
2.077773009e-13
1.013503879e-13
6.496406873e-14
3.897470214e-14
3.028598106e-14
4.244383915e-14
2.027586953e-14
2.472677296e-14
5.816473818e-14
0
2.449801647e-13
5.331079215e-13
5.870691751e-13
0
8.187078253e-13
9.31117722e-13
3.103652931e-14
0
0
0
0
0
0
0
0
0
0
0
0
0
0
0
0
0
0
0
0
0
0
0
0
0
0
0
0
0
0
0
0
0
0
0
0
1.301687865e-13
1.536791022e-13
9.162861414e-14
5.28244966e-14
4.13466242e-14
3.148486423e-14
5.678864247e-14
1.499703114e-13
5.430770495e-14
2.883703422e-14
1.290670566e-14
5.376912575e-15
1.171812412e-14
0
8.984197959e-16
7.413378055e-14
2.178241988e-13
8.361439637e-14
5.057081776e-13
6.313164422e-13
6.202959897e-13
0
8.545696309e-13
8.69379378e-13
4.410587352e-15
0
0
0
0
0
0
0
0
0
0
0
0
0
0
0
0
0
0
0
0
0
0
0
0
0
0
0
0
0
0
0
0
0
0
0
6.451786695e-14
4.375331953e-14
1.613417644e-14
1.233108372e-15
7.18762978e-15
1.986560145e-16
0
2.888893894e-15
0
3.653740971e-15
3.958333237e-16
0
6.390254513e-15
2.603050446e-14
6.335218749e-16
3.578468161e-14
1.108036926e-13
0
2.697161588e-13
5.446015225e-13
5.841272738e-13
0
9.343882847e-13
1.295022124e-12
9.57144294e-13
1.198550402e-15
0
0
0
0
0
0
0
0
0
0
0
0
0
0
0
0
0
0
0
0
0
0
0
0
0
0
0
0
0
0
0
0
0
0
8.522654092e-15
1.653687192e-15
0
0
0
0
0
8.37400149e-16
0
1.723557607e-15
4.59246522e-16
0
1.503539437e-15
2.73328744e-14
5.092936248e-15
1.306069843e-14
2.185873542e-14
0
1.685181236e-13
4.904553131e-13
7.740940657e-13
6.269511742e-13
0
1.020919507e-12
1.060116582e-12
3.952520267e-14
0
0
0
0
0
0
0
0
0
0
0
0
0
0
0
0
0
0
0
0
0
0
0
0
0
0
0
0
0
0
0
0
0
0
0
0
0
1.958091236e-15
1.921974337e-17
0
0
6.458189123e-16
0
1.745702977e-15
0
0
5.71302558e-16
2.590376276e-14
1.844589658e-16
0
5.365416257e-14
1.888744268e-13
1.650984209e-13
3.673184138e-13
5.622557998e-13
5.942555647e-13
0
1.031873411e-12
1.357816705e-12
1.058802523e-12
7.292500779e-15
0
0
0
0
0
0
0
0
0
0
0
0
0
0
0
0
0
0
0
0
0
0
0
0
0
0
0
0
0
0
0
0
0
0
0
0
0
0
0
0
7.026491113e-16
0
1.812198459e-15
0
0
4.457622443e-16
2.548336491e-14
8.659833142e-17
0
4.70611921e-14
1.921220398e-13
1.81352253e-14
3.370983459e-13
6.078628405e-13
8.160056183e-13
6.1219088e-13
0
9.62267144e-13
1.007265785e-12
3.279559742e-14
0
0
0
0
0
0
0
0
0
0
0
0
0
0
0
0
0
0
0
0
0
0
0
0
0
0
0
0
0
0
0
0
0
0
0
1.732678879e-15
0
0
0
6.939697949e-15
1.470511829e-15
0
2.098258047e-15
1.375904971e-16
0
0
2.346629812e-14
0
0
7.819768602e-15
1.252126337e-14
0
6.51805006e-14
3.92094869e-13
6.027922659e-13
6.015908503e-13
0
9.478005854e-13
1.301463089e-12
1.039254273e-12
1.025899704e-14
0
0
0
0
0
0
0
0
0
0
0
0
0
0
0
0
0
0
0
0
0
0
0
0
0
0
0
0
0
0
0
0
0
1.724699602e-15
1.517073819e-17
0
0
0
6.713918445e-16
0
0
2.126566264e-15
1.681318206e-16
0
0
4.0961622e-15
0
0
0
5.123296196e-14
1.805082565e-13
1.312795287e-13
3.002396334e-13
4.528915059e-13
4.893242082e-13
0
5.425197845e-13
1.038926297e-12
1.024948118e-12
4.634393155e-14
0
0
0
0
0
0
0
0
0
0
0
0
0
0
0
0
0
0
0
0
0
0
0
0
0
0
0
0
0
0
0
0
1.692043337e-15
9.817727882e-17
0
0
0
0
5.632082072e-16
0
0
2.257271629e-15
4.811538794e-16
0
0
5.183095424e-16
0
0
0
4.11413436e-14
1.871405016e-13
8.292599563e-14
2.099080282e-13
3.525540634e-13
4.576871696e-13
5.082544482e-13
0
9.546535898e-13
1.290597634e-12
1.018201255e-12
9.295248025e-15
0
0
0
0
0
0
0
0
0
0
0
0
0
0
0
0
0
0
0
0
0
0
0
0
0
0
0
0
0
0
0
0
0
0
0
0
0
0
0
0
2.01208324e-15
5.195965572e-16
0
0
6.990517692e-15
2.753305805e-14
7.045053884e-16
0
1.8954604e-14
9.515880729e-14
5.376043491e-15
6.081461016e-14
2.78579346e-13
4.548341084e-13
5.097677786e-13
0
8.422740461e-13
1.226924134e-12
1.08049752e-12
5.397189517e-14
0
0
0
0
0
0
0
0
0
0
0
0
0
0
0
0
0
0
0
0
0
0
0
0
0
0
0
0
0
0
0
0
0
0
0
0
5.33186369e-16
0
0
5.905052541e-16
2.010147618e-15
5.290876916e-16
0
1.69838985e-15
1.162654316e-14
3.366385497e-14
3.968148329e-15
0
0
0
0
2.015577859e-14
2.118672756e-13
3.651146976e-13
4.340868479e-13
0
0
9.623896807e-13
1.231545846e-12
7.780249918e-13
5.06517871e-16
0
0
0
0
0
0
0
0
0
0
0
0
0
0
0
0
0
0
0
0
0
0
0
0
0
0
0
0
0
0
0
0
0
0
0
0
0
0
8.549927234e-16
2.156761769e-15
4.529473897e-16
0
4.692333027e-15
1.450238478e-14
3.656605721e-14
6.822241424e-15
1.13251556e-15
0
5.013896515e-16
7.851749411e-14
2.579602661e-14
1.801134215e-13
3.31758761e-13
4.447234504e-13
5.331441852e-13
0
8.771176195e-13
1.258745846e-12
1.072190084e-12
4.605364427e-14
0
0
0
0
0
0
0
0
0
0
0
0
0
0
0
0
0
0
0
0
0
0
0
0
0
0
0
0
0
0
0
0
0
0
0
0
0
0
1.871587736e-15
7.35965236e-16
3.929896037e-17
0
6.082312447e-15
1.652028974e-14
3.922235066e-14
1.098273467e-14
6.466748926e-15
0
2.815749166e-14
1.445790704e-13
8.225356252e-15
5.897257881e-14
2.719195285e-13
4.473376723e-13
5.211461914e-13
0
0
8.717026711e-13
9.586198958e-13
6.730034277e-14
0
0
0
0
0
0
0
0
0
0
0
0
0
0
0
0
0
0
0
0
0
0
0
0
0
0
0
0
0
0
0
0
0
0
0
0
0
0
2.581968679e-15
7.166093135e-16
1.177222019e-17
0
5.217845523e-15
1.519434287e-14
3.748497868e-14
9.527261053e-15
5.475972389e-15
0
1.641763574e-14
8.815403433e-14
0
1.952562017e-14
2.177515148e-13
3.798848373e-13
4.118217542e-13
0
0
9.044903424e-13
1.253011459e-12
1.002159297e-12
2.799294412e-14
0
0
0
0
0
0
0
0
0
0
0
0
0
0
0
0
0
0
0
0
0
0
0
0
0
0
0
0
0
0
0
0
0
0
0
0
6.431928586e-17
4.772952964e-17
8.975850392e-17
0
0
2.738992202e-15
1.098819714e-14
3.22687213e-14
5.858938088e-15
2.711072906e-15
0
0
0
0
7.474724692e-16
1.601400468e-13
3.15470743e-13
4.226581532e-13
4.934879889e-13
0
7.234899696e-13
1.134090131e-12
1.046702345e-12
8.338457654e-14
0
0
0
0
0
0
0
0
0
0
0
0
0
0
0
0
0
0
0
0
0
0
0
0
0
0
0
0
0
0
0
0
0
0
0
0
0
0
0
0
0
0
4.684041693e-15
2.829520453e-14
1.132899327e-15
0
0
0
0
0
0
4.539544188e-14
2.635995613e-13
4.482920276e-13
5.298809836e-13
0
0
1.053862622e-12
1.357027627e-12
1.046702954e-12
3.645974091e-14
0
0
0
0
0
0
0
0
0
0
0
0
0
0
0
0
0
0
0
0
0
0
0
0
0
0
0
0
0
0
0
0
0
0
5.740272689e-17
0
1.271088823e-16
2.899807097e-17
0
0
0
3.632956299e-15
2.840438759e-14
1.297866492e-15
6.120439735e-17
0
0
0
1.657404887e-14
0
6.714922906e-15
1.96271718e-13
3.581771322e-13
5.082642646e-13
0
0
9.661061001e-13
1.333491306e-12
1.136411698e-12
9.901933775e-14
0
0
0
0
0
0
0
0
0
0
0
0
0
0
0
0
0
0
0
0
0
0
0
0
0
0
0
0
0
0
0
0
0
0
0
0
0
0
0
0
0
5.660022125e-16
7.845828616e-15
9.665036171e-17
2.392627233e-16
0
0
0
6.041092815e-16
0
3.758545426e-15
1.90434235e-13
3.462314446e-13
4.535411787e-13
4.817305804e-13
0
0
1.019474476e-12
1.270549653e-12
8.125357916e-13
3.748358038e-15
0
0
0
0
0
0
0
0
0
0
0
0
0
0
0
0
0
0
0
0
0
0
0
0
0
0
0
0
0
0
0
0
0
0
0
0
0
0
0
0
1.742038819e-16
6.821403768e-15
3.177494648e-16
2.38401907e-16
0
0
0
8.119276246e-18
0
0
2.265836314e-14
2.937434952e-13
4.853542151e-13
5.593168565e-13
0
0
9.54944721e-13
1.347458528e-12
1.126807125e-12
7.818267221e-14
0
0
0
0
0
0
0
0
0
0
0
0
0
0
0
0
0
0
0
0
0
0
0
0
0
0
0
0
0
0
0
0
3.734333226e-18
0
0
0
0
0
0
0
0
0
1.126759741e-16
2.37495321e-16
0
0
0
2.319505939e-17
0
0
5.908915199e-15
1.840402119e-13
2.793140538e-13
2.361663244e-13
0
0
7.317180681e-13
1.148561422e-12
1.058879056e-12
9.874384756e-14
0
0
0
0
0
0
0
0
0
0
0
0
0
0
0
0
0
0
0
0
0
0
0
0
0
0
0
0
0
0
0
0
0
0
0
0
0
0
0
0
0
0
4.22034876e-17
2.56909408e-16
0
0
0
0
0
0
4.595626966e-16
1.757173105e-13
2.944897711e-13
3.233664591e-13
3.690210558e-13
0
0
9.744144758e-13
1.309145152e-12
1.028388891e-12
4.357108563e-14
0
0
0
0
0
0
0
0
0
0
0
0
0
0
0
0
0
0
0
0
0
0
0
0
0
0
0
0
0
0
0
0
0
1.029113495e-18
0
0
0
0
0
0
0
8.283065759e-17
2.820703503e-16
0
0
0
0
0
0
3.307424915e-16
1.295871006e-13
2.811010178e-13
4.036842292e-13
5.522642002e-13
0
0
9.387527722e-13
1.342657429e-12
1.150924956e-12
1.124645936e-13
0
0
0
0
0
0
0
0
0
0
0
0
0
0
0
0
0
0
0
0
0
0
0
0
0
0
1.894778805e-19
4.537631075e-19
0
0
0
0
5.28970808e-19
0
3.691281055e-18
3.817722647e-18
0
0
0
0
0
1.319776722e-16
3.141541378e-16
0
0
0
0
0
0
0
1.735971299e-14
1.928195642e-13
3.395859027e-13
4.882557227e-13
0
0
7.204509569e-13
1.218019069e-12
1.320790023e-12
7.993944194e-13
4.20850186e-15
0
0
0
0
0
0
0
0
0
0
0
0
0
0
0
0
0
0
0
0
0
0
0
0
0
0
0
0
0
4.813817452e-19
7.409730744e-18
5.682636688e-18
2.026307873e-17
0
0
0
0
0
0
0
2.832429244e-16
3.782958144e-16
0
0
0
0
8.648376105e-17
0
0
0
1.568218851e-13
2.404188315e-13
2.015891453e-13
0
0
0
1.002655958e-12
1.383129815e-12
1.13925518e-12
8.703338264e-14
0
0
0
0
0
0
0
0
0
0
0
0
0
0
0
0
0
0
0
0
0
0
0
0
0
4.521117274e-18
0
0
6.038906157e-18
1.054188463e-17
9.144760226e-18
2.52510047e-17
2.578222292e-17
3.921939418e-17
0
0
0
0
1.867754053e-16
2.338904286e-16
4.77235795e-16
4.44829727e-16
0
0
0
0
2.539026999e-16
0
0
0
1.642849725e-13
2.644704335e-13
2.678908304e-13
3.178697566e-13
0
0
9.457723487e-13
1.354311867e-12
1.165675036e-12
1.321534757e-13
0
0
0
0
0
0
0
0
0
0
0
0
0
0
0
0
0
0
0
0
0
0
0
0
0
0
3.221768207e-18
9.913182775e-18
1.302967092e-17
1.385197233e-17
3.501830545e-17
4.228550177e-17
7.049749084e-17
0
0
0
0
0
1.616794068e-16
1.93008708e-16
4.539261685e-16
4.243525394e-16
0
0
0
0
2.494076402e-16
0
0
0
1.610343517e-13
2.758582642e-13
3.532938901e-13
5.051189338e-13
0
0
7.665885027e-13
1.272837325e-12
1.401288769e-12
9.925923865e-13
3.27275268e-14
0
0
0
0
0
0
0
0
0
0
0
0
0
0
0
0
0
0
0
0
0
0
0
0
1.028292831e-17
1.28242904e-17
1.388508076e-17
1.422128652e-17
3.664729273e-17
4.928870217e-17
1.055307527e-16