/*--------------------------------*- C++ -*----------------------------------*\
  =========                 |
  \\      /  F ield         | OpenFOAM: The Open Source CFD Toolbox
   \\    /   O peration     | Website:  https://openfoam.org
    \\  /    A nd           | Version:  10
     \\/     M anipulation  |
\*---------------------------------------------------------------------------*/
FoamFile
{
    format      ascii;
    class       volScalarField;
    location    "0.0250188088";
    object      CH2CO_0;
}
// * * * * * * * * * * * * * * * * * * * * * * * * * * * * * * * * * * * * * //

dimensions      [0 0 0 0 0 0 0];

internalField   nonuniform List<scalar> 
5170
(
0
0
0
0
0
0
0
0
0
0
0
0
0
0
0
0
0
0
0
0
0
0
0
0
0
0
0
0
0
0
0
0
0
0
0
0
0
0
0
0
0
0
0
0
0
0
0
0
0
0
0
0
0
0
0
0
0
0
0
0
0
0
0
0
0
0
0
0
0
0
0
0
0
0
0
0
0
0
0
0
0
0
0
0
0
0
0
0
0
0
0
0
0
9.080375654e-14
1.025250339e-12
2.762634051e-13
2.509013281e-12
2.156778871e-11
1.538045931e-10
7.441929176e-10
0
0
0
0
1.8253308e-16
0
6.40149385e-19
1.177388687e-18
0
4.823104521e-17
3.71219952e-18
0
5.387143345e-17
0
5.556383469e-18
3.241259001e-18
0
4.878883784e-17
0
5.031760983e-18
0
1.19169548e-17
2.080378874e-17
0
3.727435161e-18
0
0
0
1.418710559e-16
1.303125025e-15
1.841063008e-14
0
0
0
0
0
3.542863238e-12
0
0
0
0
0
0
0
3.227946144e-12
0
1.083853175e-10
6.966493729e-11
0
0
4.482172343e-12
1.13196344e-10
7.667444589e-11
3.079499406e-12
2.198001017e-11
1.935472662e-12
1.11160462e-11
3.149034857e-12
0
0
0
0
0
0
1.337895705e-11
0
0
0
6.10015617e-13
3.474860142e-11
1.742744425e-11
0
0
1.2017237e-11
2.783259604e-11
3.038706484e-11
1.139973809e-11
9.086835626e-12
2.5790038e-11
2.385494693e-11
2.204079893e-11
2.614206289e-11
2.343813613e-11
2.202111221e-11
3.98518941e-11
1.86417664e-11
2.199738001e-11
1.982564047e-11
1.722847395e-11
2.624088674e-11
5.152189444e-10
1.375565742e-10
4.485481598e-11
4.003983096e-11
1.752501397e-11
5.519135934e-08
9.483304497e-09
1.779607602e-09
3.215281237e-10
1.288776977e-11
1.940068217e-11
1.50589912e-10
2.283825646e-09
3.342767451e-08
4.404900638e-07
4.638143039e-10
3.574738853e-09
5.14313249e-08
6.745904553e-07
7.252325307e-06
2.842725604e-09
2.008020269e-08
2.418582486e-07
2.432294798e-06
1.73241462e-05
1.095033387e-08
6.948808063e-08
6.997016503e-07
5.472097455e-06
2.716379675e-05
3.324323567e-08
1.916848589e-07
1.61916919e-06
9.765604703e-06
3.586540473e-05
8.68100043e-08
4.575678822e-07
3.221959612e-06
1.527766529e-05
4.550194745e-05
2.046722504e-07
9.833597744e-07
5.757047902e-06
2.219685479e-05
5.734110957e-05
4.475719275e-07
1.943947197e-06
9.466495242e-06
3.048727088e-05
7.010133322e-05
9.279775945e-07
3.60192508e-06
1.451125962e-05
3.96736798e-05
8.208613738e-05
1.836905788e-06
6.258710773e-06
2.086793738e-05
4.929438115e-05
9.274429688e-05
3.493709238e-06
1.026601539e-05
2.84270573e-05
5.909897237e-05
0.0001025219117
6.506593825e-06
1.587150048e-05
3.693942114e-05
6.912556728e-05
0.000112184465
1.169385079e-05
2.319444889e-05
4.635976348e-05
7.949243568e-05
0.0001220903919
1.914416703e-05
3.214727882e-05
5.666490718e-05
9.030297918e-05
0.0001323859823
2.979966738e-05
4.322976302e-05
6.823932374e-05
0.0001019330364
0.0001434475761
4.326134905e-05
5.643328187e-05
8.133998232e-05
0.0001147794421
0.0001556223006
5.98677525e-05
7.246397308e-05
9.676547638e-05
0.0001295045338
0.0001693803199
8.025136582e-05
9.190034499e-05
0.0001150173825
0.0001466654911
0.0001854832439
0.0001031417581
0.0001138915943
0.0001358432661
0.0001665162222
0.0002045117226
0.0001282071066
0.0001380499723
0.0001582384367
0.000186319882
0.0002206246968
0.0001532136568
0.0001609819089
0.0001765500645
0.0001971801169
0.0002205339107
0.0001696331118
0.0001736289649
0.0001814971693
0.0001913993917
0.0002015665836
0.0001650890753
0.0001662731368
0.0001684269096
0.0001707079642
0.0001722473697
0.0001441619984
0.000144044825
0.0001435525356
0.0001423882269
0.0001402500841
0.000116667236
0.0001161496399
0.0001148808529
0.0001128098119
0.0001099091086
8.959093503e-05
8.906887379e-05
8.786047456e-05
8.597740393e-05
8.344997028e-05
6.796106962e-05
6.754897507e-05
6.659262619e-05
6.511965737e-05
6.317456248e-05
5.096135518e-05
5.065643649e-05
4.995266916e-05
4.887553767e-05
4.74633767e-05
3.789504919e-05
3.767793476e-05
3.717845047e-05
3.641597672e-05
3.541890372e-05
2.790375351e-05
2.775311114e-05
2.740679035e-05
2.687829715e-05
2.618742231e-05
2.026621526e-05
2.016415161e-05
1.992911851e-05
1.956996711e-05
1.910001138e-05
1.444605001e-05
1.437862567e-05
1.422271571e-05
1.398382307e-05
1.367069736e-05
1.005103844e-05
1.00077265e-05
9.906944804e-06
9.751932538e-06
9.548316747e-06
6.787801116e-06
6.76087604e-06
6.697683322e-06
6.600023455e-06
6.471441272e-06
4.42645346e-06
4.410350021e-06
4.372142494e-06
4.312755323e-06
4.234367682e-06
2.775221971e-06
2.766020075e-06
2.743875974e-06
2.709217916e-06
2.663349532e-06
1.666962596e-06
1.661968878e-06
1.649734939e-06
1.630426456e-06
1.604797608e-06
9.564989044e-07
9.539443069e-07
9.475365294e-07
9.373181841e-07
9.237103766e-07
5.230125067e-07
5.21789898e-07
5.18626358e-07
5.13515634e-07
5.06683368e-07
2.719694665e-07
2.714280776e-07
2.699656586e-07
2.675631303e-07
2.643361559e-07
1.342784452e-07
1.340598495e-07
1.3343186e-07
1.323769041e-07
1.309515173e-07
6.287529952e-08
6.279696003e-08
6.254911357e-08
6.211963007e-08
6.153479962e-08
2.790586901e-08
2.788228498e-08
2.779382171e-08
2.763331587e-08
2.741237183e-08
1.174099026e-08
1.173596336e-08
1.170821686e-08
1.16539693e-08
1.157807875e-08
4.688745434e-09
4.688750681e-09
4.681584674e-09
4.665431497e-09
4.642222922e-09
1.783720232e-09
1.784486898e-09
1.783258764e-09
1.779236265e-09
1.77314663e-09
6.52365637e-10
6.529072599e-10
6.529836896e-10
6.52269245e-10
6.510251101e-10
2.35843337e-10
2.361095704e-10
2.362917638e-10
2.362667963e-10
2.361247971e-10
8.980940392e-11
8.990850042e-11
8.998818392e-11
9.000502267e-11
8.998795635e-11
4.042537625e-11
4.044589031e-11
4.044630895e-11
4.041395661e-11
4.035913734e-11
2.362896479e-11
2.362084332e-11
2.359352245e-11
2.354828429e-11
2.34910464e-11
1.790438611e-11
1.789053444e-11
1.78559691e-11
1.780049788e-11
1.77253301e-11
1.533316936e-11
1.531770252e-11
1.528229898e-11
1.522757017e-11
1.515422376e-11
1.376619395e-11
1.375174046e-11
1.371937393e-11
1.366983971e-11
1.36036071e-11
1.257584944e-11
1.256263471e-11
1.253324485e-11
1.248841136e-11
1.242848833e-11
1.155068555e-11
1.153873175e-11
1.151221219e-11
1.147181544e-11
1.141785689e-11
1.062673809e-11
1.061602503e-11
1.059227836e-11
1.055612439e-11
1.050785994e-11
9.785565911e-12
9.776018362e-12
9.754860299e-12
9.722652079e-12
9.679660012e-12
9.022077701e-12
9.013601678e-12
8.994821412e-12
8.966235183e-12
8.928078048e-12
8.335777515e-12
8.328217826e-12
8.311469876e-12
8.285973587e-12
8.251921521e-12
7.721093073e-12
7.714296035e-12
7.699245597e-12
7.676337364e-12
7.645737822e-12
7.170437234e-12
7.164279016e-12
7.150652695e-12
7.129918154e-12
7.10221998e-12
6.674192837e-12
6.668570063e-12
6.656137334e-12
6.63722407e-12
6.611956695e-12
6.219839379e-12
6.214704292e-12
6.203358307e-12
6.186107567e-12
6.163073901e-12
5.797349272e-12
5.792678475e-12
5.782360958e-12
5.766677006e-12
5.745739487e-12
5.397559177e-12
5.393362264e-12
5.38408826e-12
5.36998787e-12
5.351163277e-12
5.019518274e-12
5.015778049e-12
5.007505019e-12
4.994915619e-12
4.978093118e-12
4.663765815e-12
4.660445911e-12
4.653097326e-12
4.641909549e-12
4.62695563e-12
4.339830706e-12
4.336893235e-12
4.330388176e-12
4.320480409e-12
4.30723216e-12
4.076098934e-12
4.073453671e-12
4.067595296e-12
4.058671525e-12
4.046736488e-12
1.596686093e-06
3.089280813e-05
5.163654765e-05
6.143767346e-05
6.8482771e-05
8.030006731e-05
9.637367125e-05
0.0001111819922
0.000122530579
0.0001310631862
0.0001388357345
0.0001471564755
0.0001560336457
0.0001654365671
0.0001757524125
0.0001871643979
0.0002000119191
0.0002153990315
0.0002338941294
0.0002466506594
0.0002366224929
0.0002076757508
0.0001725276301
0.0001382888891
0.0001076488975
8.153938272e-05
6.173452294e-05
4.642593954e-05
3.46892837e-05
2.568367361e-05
1.875902782e-05
1.344515553e-05
9.403175744e-06
6.381077248e-06
4.180301767e-06
2.632470672e-06
1.588075105e-06
9.151834973e-07
5.02624313e-07
2.625524256e-07
1.302402789e-07
6.128528178e-08
2.73405769e-08
1.156500482e-08
4.644066639e-09
1.776523902e-09
6.53174525e-10
2.371503148e-10
9.036157188e-11
4.044195168e-11
2.347453707e-11
1.767546952e-11
1.509830622e-11
1.355114701e-11
1.238039643e-11
1.137437615e-11
1.046896994e-11
9.645011305e-12
8.897314953e-12
8.224420259e-12
7.620986379e-12
7.079774865e-12
6.591446199e-12
6.144369739e-12
5.728737351e-12
5.335888165e-12
4.96444417e-12
4.614834838e-12
4.296496543e-12
4.037059183e-12
3.84540871e-06
1.472583746e-06
8.62651869e-08
1.16898463e-08
1.677725458e-09
9.57796873e-05
0.0004808793485
2.76354081e-05
9.113956749e-07
1.430396928e-07
0.0001271801856
0.0003593067066
3.414552033e-05
1.812326142e-06
3.425176145e-07
0.0001272415207
0.0002520040544
7.040224179e-05
5.502736855e-06
5.567836448e-07
0.0001285029607
0.0002408716946
0.0003007578464
3.014534289e-05
2.187456368e-06
0.0001451279878
0.0002963768972
0.0005312136527
6.566865178e-05
6.000303633e-06
0.0001686038972
0.0003426252713
0.0005963006541
8.675332618e-05
9.767944407e-06
0.0001843334088
0.0003381748404
0.0005007198604
9.674859117e-05
1.278059573e-05
0.000191887515
0.0003201293413
0.0004380201593
0.0001799470806
2.656507637e-05
0.0001947374254
0.0003024285256
0.0003975318962
0.0002873375153
4.653218699e-05
0.0001981643987
0.0002970516608
0.0003961239667
0.0003685098329
6.610035e-05
0.000203796174
0.0003000779869
0.0004053076663
0.0004202302442
8.39952033e-05
0.000210463824
0.0003029360005
0.0004027925752
0.0004387196547
0.0001252684737
0.0002180829628
0.0003072665915
0.0004043671753
0.0004583360081
0.0001895857347
0.0002268659259
0.0003133727209
0.0004080170392
0.0004700829198
0.0002453714318
0.0002368290475
0.0003205063435
0.0004116220818
0.0004756564529
0.0002961996752
0.0002480159435
0.0003285498442
0.0004158092356
0.0004791068256
0.0003298593049
0.0002620172781
0.00034077362
0.0004265804594
0.0004875223318
0.0003263605025
0.0002794189071
0.000356955558
0.0004394542154
0.0004824328647
0.0002529736753
0.0002869071456
0.0003546376288
0.0004291427108
0.0004813958402
0.0001817679707
0.0002612493324
0.0002929573814
0.0003128061134
0.0003083316355
0.0002486090145
0.0002173453071
0.00022288896
0.0002156869633
0.0001934871967
0.0001564678826
0.0001737369015
0.0001684423521
0.0001553302389
0.000135686478
0.0001120871613
0.0001362681269
0.0001285955483
0.0001167199772
0.0001018975787
8.577484779e-05
0.0001051108424
9.824108386e-05
8.890729127e-05
7.80512528e-05
6.664469212e-05
7.935554441e-05
7.403184553e-05
6.718244092e-05
5.945391119e-05
5.144700485e-05
6.009407305e-05
5.619550709e-05
5.126601171e-05
4.575444652e-05
4.005490579e-05
4.525035403e-05
4.247268948e-05
3.897284671e-05
3.505998828e-05
3.099856782e-05
3.38703011e-05
3.192266825e-05
2.945857003e-05
2.669073684e-05
2.379915387e-05
2.512780604e-05
2.378270601e-05
2.206416966e-05
2.011857048e-05
1.806947021e-05
1.839329953e-05
1.748158532e-05
1.629883766e-05
1.494566922e-05
1.350718464e-05
1.321351593e-05
1.260961786e-05
1.180977372e-05
1.088289188e-05
9.887477404e-06
9.263184121e-06
8.8741604e-06
8.345132843e-06
7.722967221e-06
7.047592307e-06
6.301384916e-06
6.059129176e-06
5.718793568e-06
5.311854988e-06
4.865191498e-06
4.1384116e-06
3.99361165e-06
3.781951809e-06
3.52415385e-06
3.237927821e-06
2.61281927e-06
2.530345333e-06
2.403810976e-06
2.246487453e-06
2.069714117e-06
1.580445025e-06
1.536003124e-06
1.463636281e-06
1.371563691e-06
1.266799068e-06
9.133305191e-07
8.908496484e-07
8.514172057e-07
7.999307078e-07
7.405611417e-07
5.030695879e-07
4.924974007e-07
4.721026496e-07
4.446815035e-07
4.126092543e-07
2.635855847e-07
2.59026593e-07
2.490507659e-07
2.351815679e-07
2.187096782e-07
1.311681001e-07
1.294056902e-07
1.248073022e-07
1.181624607e-07
1.101378762e-07
6.192550556e-08
6.134181635e-08
5.935108673e-08
5.634137521e-08
5.263958958e-08
2.772020119e-08
2.757395518e-08
2.676714091e-08
2.548032705e-08
2.386526683e-08
1.176633493e-08
1.175450597e-08
1.144939936e-08
1.09305057e-08
1.026445668e-08
4.741364253e-09
4.757149817e-09
4.64981585e-09
4.452431039e-09
4.192777869e-09
1.819770976e-09
1.833575817e-09
1.798560667e-09
1.727715377e-09
1.632005508e-09
6.709803976e-10
6.787832349e-10
6.683694695e-10
6.443344915e-10
6.107377145e-10
2.439440285e-10
2.474216768e-10
2.443378805e-10
2.363776325e-10
2.249540304e-10
9.271774324e-11
9.395459465e-11
9.293224152e-11
9.022493836e-11
8.634263419e-11
4.115211589e-11
4.143962975e-11
4.099040545e-11
3.999853726e-11
3.858447969e-11
2.362462905e-11
2.35885029e-11
2.329837979e-11
2.280516466e-11
2.214956739e-11
1.76558681e-11
1.751103922e-11
1.725754989e-11
1.691399617e-11
1.649608048e-11
1.503332951e-11
1.486877036e-11
1.464365904e-11
1.436550554e-11
1.404136054e-11
1.348054076e-11
1.332572427e-11
1.312635342e-11
1.288720027e-11
1.261216146e-11
1.231307094e-11
1.217062397e-11
1.199214974e-11
1.178043117e-11
1.15386281e-11
1.131261827e-11
1.118401253e-11
1.102419623e-11
1.083557193e-11
1.062046269e-11
1.04135532e-11
1.029841246e-11
1.015565485e-11
9.987395561e-12
9.795666484e-12
9.595580877e-12
9.49300323e-12
9.365914082e-12
9.216172479e-12
9.045550967e-12
8.853375944e-12
8.762230241e-12
8.64927881e-12
8.516256016e-12
8.364288987e-12
8.185085551e-12
8.103565947e-12
8.002596438e-12
7.883512881e-12
7.747592838e-12
7.585430702e-12
7.512001349e-12
7.421199828e-12
7.314161646e-12
7.191969685e-12
7.047363564e-12
6.980716733e-12
6.898483643e-12
6.801626693e-12
6.691078363e-12
6.561674866e-12
6.500746622e-12
6.425716936e-12
6.337656318e-12
6.237310417e-12
6.117102709e-12
6.061538097e-12
5.993334464e-12
5.91324394e-12
5.822001057e-12
5.703932758e-12
5.653439642e-12
5.591501351e-12
5.518790708e-12
5.435960732e-12
5.313656437e-12
5.268267349e-12
5.212473079e-12
5.146945095e-12
5.072072056e-12
4.944681283e-12
4.904110134e-12
4.854079135e-12
4.795126928e-12
4.727771888e-12
4.597356747e-12
4.561308356e-12
4.516727927e-12
4.464102871e-12
4.403893762e-12
4.281047185e-12
4.249091062e-12
4.209484338e-12
4.162653259e-12
4.108996704e-12
4.023117607e-12
3.994282211e-12
3.95853483e-12
3.916240311e-12
3.867736715e-12
1.985524968e-10
1.369099383e-11
0
0
0
0
0
0
0
0
0
0
0
0
0
0
0
0
0
0
0
0
0
0
0
0
0
0
0
0
0
0
0
0
0
0
0
0
0
0
0
0
0
0
0
0
0
0
0
0
0
0
0
0
0
0
0
0
0
0
1.586712706e-08
1.609365035e-09
1.691893997e-10
2.277205957e-11
3.340334597e-12
0
0
0
0
0
0
0
0
0
0
0
0
0
0
0
0
0
0
0
0
0
0
0
0
0
0
0
0
0
0
0
0
0
0
0
0
0
0
0
0
0
0
0
0
0
0
0
0
0
0
0
0
0
0
0
5.062158493e-08
1.004556559e-08
1.343220993e-09
1.922367731e-10
4.180267937e-11
1.140521117e-11
2.716058441e-12
0
0
0
0
0
0
0
0
0
0
0
0
0
0
0
0
0
0
0
0
0
0
0
0
0
0
0
0
0
0
0
0
0
0
0
0
0
0
0
0
0
0
0
0
0
0
0
0
0
0
0
0
0
1.070846799e-07
4.588609509e-08
1.296157617e-08
1.694493019e-09
3.316673839e-10
1.008801875e-10
3.804927059e-11
1.428960837e-11
4.290096863e-12
3.843301623e-13
0
0
0
0
0
0
0
0
0
0
0
0
0
0
0
0
0
0
0
0
0
0
0
0
0
0
0
0
0
0
0
0
0
0
0
0
0
0
0
0
0
0
0
0
0
0
0
0
0
0
4.4853328e-07
1.552943598e-07
8.446181451e-08
1.604088299e-08
2.444613356e-09
6.059798247e-10
2.139839751e-10
8.611013271e-11
3.401230169e-11
1.164925045e-11
2.733716664e-12
1.577348513e-15
0
0
0
0
0
0
0
0
0
0
0
0
0
0
0
0
0
0
0
0
0
0
0
0
0
0
0
0
0
0
0
0
0
0
0
0
0
0
0
0
0
0
0
0
0
0
0
0
9.854293809e-07
3.021112562e-07
2.051769293e-07
9.00629572e-08
1.412771606e-08
2.59932826e-09
7.566672508e-10
2.812869177e-10
1.112545334e-10
4.193137499e-11
1.352526946e-11
2.924223875e-12
4.014003379e-15
0
0
0
0
0
0
0
0
0
0
0
0
0
0
0
0
0
0
0
0
0
0
0
0
0
0
0
0
0
0
0
0
0
0
0
0
0
0
0
0
0
0
0
0
0
0
0
1.039607446e-06
3.406611608e-07
2.754729246e-07
2.339599279e-07
7.051456827e-08
1.050484168e-08
2.292050741e-09
7.365648165e-10
2.77196837e-10
1.052471687e-10
3.686693418e-11
1.061220762e-11
1.780510965e-12
0
0
0
0
0
0
0
0
0
0
0
0
0
0
0
0
0
0
0
0
0
0
0
0
0
0
0
0
0
0
0
0
0
0
0
0
0
0
0
0
0
0
0
0
0
0
0
1.028318871e-06
3.744165606e-07
2.904633928e-07
3.522915169e-07
2.308869943e-07
4.549687875e-08
7.30794653e-09
1.882797222e-09
6.378818897e-10
2.339514955e-10
8.305807161e-11
2.622517339e-11
6.307329433e-12
5.419131877e-13
0
0
0
0
0
0
0
0
0
0
0
0
0
0
0
0
0
0
0
0
0
0
0
0
0
0
0
0
0
0
0
0
0
0
0
0
0
0
0
0
0
0
0
0
0
0
2.438491193e-06
4.557828058e-07
3.287506588e-07
4.271194953e-07
4.442436246e-07
1.772938706e-07
2.618973503e-08
4.986028984e-09
1.433056019e-09
4.867657589e-10
1.680201374e-10
5.40128663e-11
1.465703743e-11
2.557409526e-12
4.231787764e-17
0
0
0
0
0
0
0
0
0
0
0
0
0
0
0
0
0
0
0
0
0
0
0
0
0
0
0
0
0
0
0
0
0
0
0
0
0
0
0
0
0
0
0
0
0
4.934251654e-06
5.9503673e-07
4.481550611e-07
5.129958659e-07
6.275390784e-07
4.518747787e-07
9.714716377e-08
1.371551591e-08
3.154816505e-09
9.573319184e-10
3.129768864e-10
9.889975284e-11
2.784677455e-11
5.963187233e-12
4.042221625e-13
0
0
0
0
0
0
0
0
0
0
0
0
0
0
0
0
0
0
0
0
0
0
0
0
0
0
0
0
0
0
0
0
0
0
0
0
0
0
0
0
0
0
0
0
0
8.185799775e-06
8.868341392e-07
4.522872265e-07
5.651847982e-07
7.857505099e-07
7.810364516e-07
2.743495747e-07
3.912766211e-08
6.999176642e-09
1.809935502e-09
5.410462217e-10
1.630528288e-10
4.560722333e-11
1.056809252e-11
1.352298937e-12
0
0
0
0
0
0
0
0
0
0
0
0
0
0
0
0
0
0
0
0
0
0
0
0
0
0
0
0
0
0
0
0
0
0
0
0
0
0
0
0
0
0
0
0
0
1.215465955e-05
1.242972529e-06
3.819595955e-07
8.465168137e-07
1.044755716e-06
1.15071674e-06
6.322577412e-07
1.090636048e-07
1.669272665e-08
3.478308273e-09
9.030706886e-10
2.504005434e-10
6.729827662e-11
1.591318187e-11
2.536802037e-12
5.251799631e-15
0
0
0
0
0
0
0
0
0
0
0
0
0
0
0
0
0
0
0
0
0
0
0
0
0
0
0
0
0
0
0
0
0
0
0
0
0
0
0
0
0
0
0
0
1.847901468e-05
2.140512735e-06
3.989208676e-07
1.006412762e-06
1.327329523e-06
1.624278454e-06
1.157904629e-06
2.861805978e-07
3.939144252e-08
6.728812025e-09
1.44319771e-09
3.537877515e-10
8.895182896e-11
2.082260353e-11
3.655777196e-12
8.662674146e-14
0
0
0
0
0
0
0
0
0
0
0
0
0
0
0
0
0
0
0
0
0
0
0
0
0
0
0
0
0
0
0
0
0
0
0
0
0
0
0
0
0
0
0
0
3.031482871e-05
3.887509314e-06
4.447799299e-07
7.953196224e-07
1.521260718e-06
2.131826082e-06
1.844659514e-06
6.534958423e-07
8.925566663e-08
1.325207443e-08
2.309881464e-09
4.844908814e-10
1.112940345e-10
2.533735085e-11
4.700247355e-12
2.380041266e-13
0
0
0
0
0
0
0
0
0
0
0
0
0
0
0
0
0
0
0
0
0
0
0
0
0
0
0
0
0
0
0
0
0
0
0
0
0
0
0
0
0
0
0
0
4.29695982e-05
6.281292275e-06
8.390272434e-07
7.400168069e-07
2.025235589e-06
2.769805735e-06
2.596102272e-06
1.253365362e-06
2.059399129e-07
2.819908886e-08
3.80434727e-09
6.408510968e-10
1.305183423e-10
2.866612727e-11
5.526008643e-12
3.937298457e-13
0
0
0
0
0
0
0
0
0
0
0
0
0
0
0
0
0
0
0
0
0
0
0
0
0
0
0
0
0
0
0
0
0
0
0
0
0
0
0
0
0
0
0
0
5.672760935e-05
8.393352302e-06
1.282129493e-06
8.10312254e-07
2.730434401e-06
3.705373006e-06
3.428762738e-06
1.936400797e-06
4.362147107e-07
6.203575389e-08
6.602484731e-09
8.406881872e-10
1.46608983e-10
3.109876352e-11
6.224906169e-12
5.409150455e-13
0
0
0
0
0
0
0
0
0
0
0
0
0
0
0
0
0
0
0
0
0
0
0
0
0
0
0
0
0
0
0
0
0
0
0
0
0
0
0
0
0
0
0
0
6.895298057e-05
1.199835849e-05
1.92859528e-06
1.260976771e-06
3.784216175e-06
5.24954772e-06
4.350921724e-06
2.459378595e-06
7.992450868e-07
1.297726598e-07
1.213386351e-08
1.186604135e-09
1.778487696e-10
3.664005574e-11
7.605993862e-12
8.298600707e-13
0
0
0
0
0
0
0
0
0
0
0
0
0
0
0
0
0
0
0
0
0
0
0
0
0
0
0
0
0
0
0
0
0
0
0
0
0
0
0
0
0
0
0
0
7.004479851e-05
1.271105345e-05
3.020516235e-06
8.924177209e-06
7.804013874e-06
7.388713056e-06
5.229520373e-06
2.846303809e-06
1.124072603e-06
2.589981545e-07
2.806737845e-08
2.414544061e-09
3.017754308e-10
5.520467217e-11
1.125475578e-11
1.557656041e-12
0
0
0
0
0
0
0
0
0
0
0
0
0
0
0
0
0
0
0
0
0
0
0
0
0
0
0
0
0
0
0
0
0
0
0
0
0
0
0
0
0
0
0
0
5.28314615e-05
9.764258137e-06
3.323936794e-06
1.157539679e-05
1.254377454e-05
9.515921715e-06
5.908760393e-06
3.138491592e-06
1.397855794e-06
4.676706797e-07
9.241439333e-08
9.857869642e-09
9.420460716e-10
1.229824855e-10
2.102299077e-11
3.246343207e-12
1.429457593e-14
0
0
0
0
0
0
0
0
0
0
0
0
0
0
0
0
0
0
0
0
0
0
0
0
0
0
0
0
0
0
0
0
0
0
0
0
0
0
0
0
0
0
0
5.465929386e-05
2.374892584e-05
4.113807247e-05
2.671701534e-05
1.741375712e-05
1.094454511e-05
6.424267775e-06
3.467296036e-06
1.690394863e-06
7.158337924e-07
2.311080633e-07
4.417051434e-08
4.662194227e-09
4.404423798e-10
5.418677078e-11
7.750414895e-12
5.03474933e-13
0
0
0
0
0
0
0
0
0
0
0
0
0
0
0
0
0
0
0
0
0
0
0
0
0
0
0
0
0
0
0
0
0
0
0
0
0
0
0
0
0
0
0
0.0001573859458
8.416166407e-05
5.036998172e-05
3.075932196e-05
1.908036016e-05
1.168620861e-05
6.88979199e-06
3.853163503e-06
2.016248272e-06
9.655808916e-07
4.040391154e-07
1.288965285e-07
2.4154187e-08
2.452810942e-09
2.187854815e-10
2.406128697e-11
2.425143482e-12
0
0
0
0
0
0
0
0
0
0
0
0
0
0
0
0
0
0
0
0
0
0
0
0
0
0
0
0
0
0
0
0
0
0
0
0
0
0
0
0
0
0
0
0.0001106511103
7.293945846e-05
4.717556842e-05
3.026557344e-05
1.926751792e-05
1.203067358e-05
7.293172858e-06
4.25472068e-06
2.363335925e-06
1.230195761e-06
5.848036825e-07
2.418253416e-07
7.574436064e-08
1.36745737e-08
1.297071454e-09
1.060617315e-10
9.68359131e-12
3.611313056e-13
0
0
0
0
0
0
0
0
0
0
0
0
0
0
0
0
0
0
0
0
0
0
0
0
0
0
0
0
0
0
0
0
0
0
0
0
0
0
0
0
0
0
8.550167571e-05
6.089038262e-05
4.19704795e-05
2.829279119e-05
1.86957544e-05
1.207387247e-05
7.588437749e-06
4.615289127e-06
2.694677391e-06
1.492682048e-06
7.70614107e-07
3.604370066e-07
1.452620968e-07
4.378463912e-08
7.400386533e-09
6.339458894e-10
4.547453028e-11
3.043660997e-12
0
0
0
0
0
0
0
0
0
0
0
0
0
0
0
0
0
0
0
0
0
0
0
0
0
0
0
0
0
0
0
0
0
0
0
0
0
0
0
0
0
0
6.809716196e-05
5.080989449e-05
3.663876704e-05
2.571343436e-05
1.76248332e-05
1.178903253e-05
7.67587637e-06
4.845763618e-06
2.948086557e-06
1.713190799e-06
9.387032284e-07
4.755934946e-07
2.160348801e-07
8.341403766e-08
2.364827184e-08
3.635475103e-09
2.709382135e-10
1.647618853e-11
3.828274662e-13
0
0
0
0
0
0
0
0
0
0
0
0
0
0
0
0
0
0
0
0
0
0
0
0
0
0
0
0
0
0
0
0
0
0
0
0
0
0
0
0
0
5.419041393e-05
4.165271504e-05
3.101392371e-05
2.262321897e-05
1.603311437e-05
1.107831496e-05
7.451537065e-06
4.86187873e-06
3.06282831e-06
1.85016773e-06
1.061131309e-06
5.695679742e-07
2.799885109e-07
1.218106977e-07
4.421706864e-08
1.149236295e-08
1.562528958e-09
1.016099912e-10
4.616303468e-12
0
0
0
0
0
0
0
0
0
0
0
0
0
0
0
0
0
0
0
0
0
0
0
0
0
0
0
0
0
0
0
0
0
0
0
0
0
0
0
0
0
4.272004493e-05
3.386805184e-05
2.612516376e-05
1.96253636e-05
1.434823969e-05
1.019783898e-05
7.039666032e-06
4.720763216e-06
3.060686658e-06
1.907884076e-06
1.134358346e-06
6.360621093e-07
3.309143819e-07
1.558790528e-07
6.393895615e-08
2.13911887e-08
4.953542486e-09
5.73084703e-10
3.088292654e-11
5.264781697e-13
0
0
0
0
0
0
0
0
0
0
0
0
0
0
0
0
0
0
0
0
0
0
0
0
0
0
0
0
0
0
0
0
0
0
0
0
0
0
0
0
3.381028021e-05
2.737551209e-05
2.158130979e-05
1.658409193e-05
1.242538354e-05
9.065896852e-06
6.424662493e-06
4.413200315e-06
2.929666395e-06
1.873764599e-06
1.146695917e-06
6.651637068e-07
3.609868888e-07
1.799122872e-07
8.008538763e-08
3.041942825e-08
9.125141015e-09
1.803484494e-09
1.647592272e-10
6.106324034e-12
0
0
0
0
0
0
0
0
0
0
0
0
0
0
0
0
0
0
0
0
0
0
0
0
0
0
0
0
0
0
0
0
0
0
0
0
0
0
0
0
2.651379182e-05
2.182067117e-05
1.75070153e-05
1.370354861e-05
1.046506576e-05
7.791165098e-06
5.644478053e-06
3.966138969e-06
2.693793156e-06
1.760025797e-06
1.102139399e-06
6.562949736e-07
3.676375833e-07
1.908649088e-07
8.990351792e-08
3.720325614e-08
1.278244137e-08
3.287090513e-09
5.213852323e-10
3.369508704e-11
2.737152151e-13
0
0
0
0
0
0
0
0
0
0
0
0
0
0
0
0
0
0
0
0
0
0
0
0
0
0
0
0
0
0
0
0
0
0
0
0
0
0
0
2.057809867e-05
1.715900745e-05
1.396320478e-05
1.109374175e-05
8.604008163e-06
6.508694225e-06
4.794744437e-06
3.430773712e-06
2.374851377e-06
1.583432895e-06
1.011079574e-06
6.141446855e-07
3.522214283e-07
1.883876159e-07
9.23865918e-08
4.05298368e-08
1.528474835e-08
4.634619027e-09
1.048009109e-09
1.327202238e-10
5.5423298e-12
0
0
0
0
0
0
0
0
0
0
0
0
0
0
0
0
0
0
0
0
0
0
0
0
0
0
0
0
0
0
0
0
0
0
0
0
0
0
0
1.576588033e-05
1.328751851e-05
1.093663919e-05
8.792902965e-06
6.903199279e-06
5.287444611e-06
3.944974607e-06
2.860529304e-06
2.009054527e-06
1.36018388e-06
8.830270815e-07
5.459764957e-07
3.18551854e-07
1.741268396e-07
8.793235342e-08
4.02317426e-08
1.619548736e-08
5.409791902e-09
1.3544229e-09
2.404098351e-10
2.031581313e-11
5.752774142e-14
0
0
0
0
0
0
0
0
0
0
0
0
0
0
0
0
0
0
0
0
0
0
0
0
0
0
0
0
0
0
0
0
0
0
0
0
0
0
1.187470521e-05
1.009529529e-05
8.384697731e-06
6.803720805e-06
5.391407128e-06
4.168020178e-06
3.138742185e-06
2.297326131e-06
1.62946838e-06
1.115462937e-06
7.328783086e-07
4.592658105e-07
2.723549707e-07
1.51161083e-07
7.794176926e-08
3.674850128e-08
1.547937042e-08
5.601540726e-09
1.555849143e-09
2.443868355e-10
2.654746632e-11
5.655902549e-13
0
0
0
0
0
0
0
0
0
0
0
0
0
0
0
0
0
0
0
0
0
0
0
0
0
0
0
0
0
0
0
0
0
0
0
0
0
0
8.747009243e-06
7.48799748e-06
6.262831411e-06
5.117262612e-06
4.082555384e-06
3.176935168e-06
2.407638406e-06
1.773184861e-06
1.265545477e-06
8.721752209e-07
5.776804522e-07
3.654521171e-07
2.192388387e-07
1.235854624e-07
6.469818216e-08
3.118428945e-08
1.357957025e-08
5.168126689e-09
1.56338735e-09
2.950789582e-10
4.250008594e-11
2.6267542e-12
0
0
0
0
0
0
0
0
0
0
0
0
0
0
0
0
0
0
0
0
0
0
0
0
0
0
0
0
0
0
0
0
0
0
0
0
0
0
6.266529463e-06
5.393644809e-06
4.534856887e-06
3.723876178e-06
2.984803381e-06
2.3327577e-06
1.774975706e-06
1.312171884e-06
9.399626037e-07
6.502666476e-07
4.326276264e-07
2.753313454e-07
1.664911773e-07
9.490169561e-08
5.045333337e-08
2.473422879e-08
1.10489865e-08
4.380237751e-09
1.458664668e-09
3.074159754e-10
1.986143561e-12
6.67335767e-16
0
0
0
0
0
0
0
0
0
0
0
0
0
0
0
0
0
0
0
0
0
0
0
0
0
0
0
0
0
0
0
0
0
0
0
0
0
0
4.343923191e-06
3.754472698e-06
3.168821724e-06
2.611145079e-06
2.099297424e-06
1.645022698e-06
1.254519034e-06
9.292464988e-07
6.668719562e-07
4.622211489e-07
3.082315149e-07
1.968202116e-07
1.196239849e-07
6.86941504e-08
3.694508736e-08
1.838373835e-08
8.37285183e-09
3.417103134e-09
1.180829645e-09
2.622139801e-10
1.0982864e-12
0
0
0
0
0
0
0
0
0
0
0
0
0
0
0
0
0
0
0
0
0
0
0
0
0
0
0
0
0
0
0
0
0
0
0
0
0
0
0
2.900920661e-06
2.515459385e-06
2.129050074e-06
1.758464857e-06
1.416389748e-06
1.11144003e-06
8.484338872e-07
6.288670606e-07
4.515237647e-07
3.131213844e-07
2.089819401e-07
1.336592231e-07
8.149406306e-08
4.706033096e-08
2.553136019e-08
1.287557223e-08
5.95515192e-09
2.489000333e-09
8.997171799e-10
2.538929157e-10
3.931331153e-12
0
0
0
0
0
0
0
0
0
0
0
0
0
0
0
0
0
0
0
0
0
0
0
0
0
0
0
0
0
0
0
0
0
0
0
0
0
0
0
1.859739361e-06
1.616867568e-06
1.371365105e-06
1.134435846e-06
9.147064207e-07
7.181682182e-07
5.482951323e-07
4.063226274e-07
2.916298237e-07
2.02168382e-07
1.349243421e-07
8.634820278e-08
5.27397175e-08
3.056494792e-08
1.668724723e-08
8.504070838e-09
3.991672799e-09
1.697764801e-09
6.298451756e-10
1.778262847e-10
0
0
0
0
0
0
0
0
0
0
0
0
0
0
0
0
0
0
0
0
0
0
0
0
0
0
0
0
0
0
0
0
0
0
0
0
0
0
0
0
1.141251247e-06
9.944055798e-07
8.447893409e-07
6.995745975e-07
5.643640211e-07
4.431094819e-07
3.381590865e-07
2.504140444e-07
1.795666689e-07
1.243709647e-07
8.295150232e-08
5.308500417e-08
3.245540788e-08
1.886000231e-08
1.034860615e-08
5.315914653e-09
2.525299179e-09
1.087250033e-09
4.086582217e-10
1.172340225e-10
2.064465286e-11
0
0
0
0
0
0
0
0
0
0
0
0
0
0
0
0
0
0
0
0
0
0
0
0
0
0
0
0
0
0
0
0
0
0
0
0
0
0
0
6.687711169e-07
5.838573279e-07
4.966743751e-07
4.116084204e-07
3.32123893e-07
2.606931743e-07
1.988097306e-07
1.470748638e-07
1.053415347e-07
7.287747672e-08
4.856316966e-08
3.106656496e-08
1.900333022e-08
1.106323431e-08
6.093097102e-09
3.150610606e-09
1.511334854e-09
6.606611483e-10
2.495709015e-10
7.185686049e-11
6.759573829e-12
0
0
0
0
0
0
0
0
0
0
0
0
0
0
0
0
0
0
0
0
0
0
0
0
0
0
0
0
0
0
0
0
0
0
0
0
0
0
0
3.734671302e-07
3.266405679e-07
2.781952703e-07
2.3068805e-07
1.861545635e-07
1.460600826e-07
1.113010044e-07
8.225028054e-08
5.883851614e-08
4.065588113e-08
2.70646147e-08
1.730438946e-08
1.058765089e-08
6.172057584e-09
3.40943386e-09
1.77159578e-09
8.544937374e-10
3.745554099e-10
1.402632563e-10
3.826048015e-11
5.379978513e-13
0
0
0
0
0
0
0
0
0
0
0
0
0
0
0
0
0
0
0
0
0
0
0
0
0
0
0
0
0
0
0
0
0
0
0
0
0
0
0
1.984126258e-07
1.738440727e-07
1.482312974e-07
1.229899031e-07
9.925477159e-08
7.784834634e-08
5.927873924e-08
4.376268615e-08
3.127025762e-08
2.1582349e-08
1.435397726e-08
9.172892315e-09
5.613492849e-09
3.276264781e-09
1.814696375e-09
9.469459395e-10
4.595829496e-10
2.0120158e-10
7.337951564e-11
1.735248608e-11
4.82526587e-15
0
0
0
0
0
0
0
0
0
0
0
0
0
0
0
0
0
0
0
0
0
0
0
0
0
0
0
0
0
0
0
0
0
0
0
0
0
0
0
1.001485622e-07
8.790818582e-08
7.504724824e-08
6.230931771e-08
5.029358527e-08
3.943731555e-08
3.001289696e-08
2.213900808e-08
1.580430372e-08
1.089769058e-08
7.242474699e-09
4.626629477e-09
2.832049605e-09
1.654708499e-09
9.186945093e-10
4.810374842e-10
2.342830109e-10
1.018203192e-10
3.803984337e-11
6.103687027e-12
0
0
0
0
0
0
0
0
0
0
0
0
0
0
0
0
0
0
0
0
0
0
0
0
0
0
0
0
0
0
0
0
0
0
0
0
0
0
0
0
4.798115349e-08
4.219879219e-08
3.607353232e-08
2.997532989e-08
2.420370318e-08
1.897877462e-08
1.443866573e-08
1.064496733e-08
7.594223125e-09
5.233220845e-09
3.476553576e-09
2.220809207e-09
1.360115392e-09
7.956488567e-10
4.427349197e-10
2.322496813e-10
1.128365684e-10
4.744615648e-11
1.715567961e-11
1.407802147e-12
0
0
0
0
0
0
0
0
0
0
0
0
0
0
0
0
0
0
0
0
0
0
0
0
0
0
0
0
0
0
0
0
0
0
0
0
0
0
0
0
2.180895323e-08
1.9221228e-08
1.645659017e-08
1.368886312e-08
1.105987674e-08
8.674507831e-09
6.599126028e-09
4.864620063e-09
3.469922776e-09
2.390872711e-09
1.58871985e-09
1.015574864e-09
6.228555282e-10
3.651959412e-10
2.040780338e-10
1.076078452e-10
5.271240562e-11
2.249549409e-11
6.64754427e-12
2.285446687e-12
0
0
0
0
0
0
0
0
0
0
0
0
0
0
0
0
0
0
0
0
0
0
0
0
0
0
0
0
0
0
0
0
0
0
0
0
0
0
0
0
9.405652779e-09
8.309149066e-09
7.126882777e-09
5.936322179e-09
4.801120102e-09
3.768493235e-09
2.868578682e-09
2.115621798e-09
1.509884669e-09
1.041114402e-09
6.928733452e-10
4.439606223e-10
2.733105263e-10
1.612353199e-10
9.091607962e-11
4.859498503e-11
2.407152223e-11
1.003380627e-11
1.38830803e-12
3.440019521e-13
0
0
0
0
0
0
0
0
0
0
0
0
0
0
0
0
0
0
0
0
0
0
0
0
0
0
0
0
0
0
0
0
0
0
0
0
0
0
0
0
3.853480962e-09