/*--------------------------------*- C++ -*----------------------------------*\
  =========                 |
  \\      /  F ield         | OpenFOAM: The Open Source CFD Toolbox
   \\    /   O peration     | Website:  https://openfoam.org
    \\  /    A nd           | Version:  10
     \\/     M anipulation  |
\*---------------------------------------------------------------------------*/
FoamFile
{
    format      ascii;
    class       volScalarField;
    location    "0.0250188088";
    object      CH3;
}
// * * * * * * * * * * * * * * * * * * * * * * * * * * * * * * * * * * * * * //

dimensions      [0 0 0 0 0 0 0];

internalField   nonuniform List<scalar> 
5170
(
1.327026929e-09
1.324907196e-09
1.310479352e-09
1.207466419e-09
8.850169919e-11
2.594883157e-09
2.588279351e-09
2.557625229e-09
2.400632959e-09
1.504691371e-09
3.850397638e-09
3.839354328e-09
3.794647677e-09
3.607029316e-09
2.867965116e-09
5.090870845e-09
5.075946151e-09
5.020905141e-09
4.821537002e-09
4.233510194e-09
6.313871961e-09
6.295803396e-09
6.234500392e-09
6.038512668e-09
5.600078216e-09
7.518459929e-09
7.498566193e-09
7.435254785e-09
7.255963147e-09
6.965565275e-09
8.705494128e-09
8.684806453e-09
8.623516424e-09
8.474061726e-09
8.329619038e-09
9.877725883e-09
9.857611269e-09
9.801916441e-09
9.693157989e-09
9.693084953e-09
1.103786475e-08
1.101955842e-08
1.097343228e-08
1.091514101e-08
1.105762583e-08
1.218890608e-08
1.217321457e-08
1.213939162e-08
1.214253095e-08
1.242550295e-08
1.333282215e-08
1.332053883e-08
1.330113876e-08
1.337697362e-08
1.379790926e-08
1.447027273e-08
1.446250399e-08
1.446221154e-08
1.461868543e-08
1.517413905e-08
1.560168419e-08
1.559962232e-08
1.562426211e-08
1.586785171e-08
1.655294242e-08
1.672740294e-08
1.673224995e-08
1.678698418e-08
1.712424196e-08
1.79327338e-08
1.784733445e-08
1.786050103e-08
1.795004403e-08
1.838675828e-08
1.931133106e-08
1.896099541e-08
1.89840843e-08
1.911476247e-08
1.965502323e-08
2.068474927e-08
2.006811335e-08
2.010293692e-08
2.027955524e-08
2.092601911e-08
2.205358992e-08
2.116860851e-08
2.121731096e-08
2.144754382e-08
2.220079453e-08
2.341293735e-08
2.226255963e-08
2.232777815e-08
2.262068608e-08
2.348574036e-08
2.478626446e-08
2.336214942e-08
2.349827735e-08
2.420113924e-08
2.727000479e-08
3.725904528e-08
2.680183e-18
0
4.850894188e-20
4.694526421e-20
4.277552985e-20
1.814222963e-18
0
0
0
1.424552684e-19
3.367292665e-19
0
1.03412011e-18
1.714657928e-20
0
1.519016872e-18
1.250368727e-18
0
0
0
2.483636641e-17
0
0
2.842390768e-16
6.825671548e-15
3.213269412e-13
3.342602129e-15
4.507892178e-15
5.373319754e-16
0
0
2.782901592e-13
0
2.473850701e-12
5.355626592e-11
2.93521231e-10
7.709440589e-12
2.735595353e-12
2.610626462e-10
0
0
8.427482878e-11
2.809488954e-10
4.009616906e-11
0
0
2.942798308e-09
3.58238158e-10
0
0
1.150936851e-10
2.607990973e-09
0
0
1.069818055e-13
0
1.553827982e-10
0
0
4.373535147e-10
0
0
0
1.115760462e-10
2.323154115e-09
9.076836051e-10
0
9.263174816e-12
9.526584542e-10
4.762217971e-09
3.214430294e-09
6.943600595e-10
4.602235052e-10
2.200537042e-09
2.670556913e-09
3.819260249e-09
2.30957954e-09
2.055525997e-09
4.12563222e-09
3.007548854e-09
2.708594607e-09
4.274737048e-09
3.981220664e-09
3.147413874e-09
5.453763389e-09
2.502360582e-09
2.90811559e-09
2.827851037e-09
2.827119961e-09
3.365029832e-09
7.310964206e-09
3.660366178e-09
2.894116256e-09
4.751701992e-09
8.744683265e-10
2.61630613e-07
1.163001623e-07
1.948178396e-08
4.971755421e-09
2.341049652e-10
2.470129543e-08
2.701055425e-08
6.395231675e-08
6.101696698e-07
6.588603927e-06
2.691649512e-08
3.533222309e-08
1.392578536e-07
1.107227969e-06
7.991004613e-06
3.057607487e-08
4.964540446e-08
2.319448592e-07
1.383092185e-06
7.782681511e-06
3.626897889e-08
7.008127979e-08
3.227236716e-07
1.551670515e-06
7.258822372e-06
4.601465524e-08
1.081593737e-07
5.507294188e-07
1.719400738e-06
6.963518288e-06
5.987401707e-08
1.483552447e-07
5.71945765e-07
1.915029253e-06
7.034618248e-06
7.885630627e-08
1.96743635e-07
6.467107445e-07
2.165158828e-06
7.375862293e-06
1.038686303e-07
2.529671899e-07
7.582358881e-07
2.439121417e-06
7.656546019e-06
1.372833799e-07
3.157059138e-07
9.027342263e-07
2.728224023e-06
7.947565329e-06
1.795259254e-07
3.805218721e-07
1.072690041e-06
3.00861334e-06
8.126613033e-06
2.406761851e-07
4.865531846e-07
1.282762769e-06
3.354318399e-06
8.573327092e-06
3.012167043e-07
6.143754275e-07
1.529522857e-06
3.75578104e-06
9.11635877e-06
3.992902665e-07
7.826666331e-07
1.809482313e-06
4.173528964e-06
9.606920723e-06
5.499385515e-07
9.873959353e-07
2.122420416e-06
4.637214648e-06
1.021999225e-05
7.690133921e-07
1.257840963e-06
2.499121734e-06
5.189100856e-06
1.099211672e-05
1.045370908e-06
1.575807921e-06
2.926089543e-06
5.765049409e-06
1.166198212e-05
1.43062563e-06
2.018445518e-06
3.522527668e-06
6.60238975e-06
1.288851657e-05
1.988852988e-06
2.654350984e-06
4.335201086e-06
7.660680088e-06
1.426087535e-05
2.675263804e-06
3.456136819e-06
5.468566153e-06
9.431753971e-06
1.752166394e-05
3.690722362e-06
4.622735965e-06
6.988369281e-06
1.159742439e-05
2.023730546e-05
4.896626404e-06
5.835426518e-06
8.070070987e-06
1.19826172e-05
1.83038193e-05
5.783631037e-06
6.420126183e-06
7.844510583e-06
1.008203496e-05
1.320556353e-05
4.992679792e-06
5.267249385e-06
5.848531991e-06
6.679504644e-06
7.693592987e-06
3.115080009e-06
3.188725224e-06
3.326732447e-06
3.498676816e-06
3.668250054e-06
1.531740995e-06
1.539971447e-06
1.549005139e-06
1.549493113e-06
1.53348018e-06
6.458700253e-07
6.426014391e-07
6.333331241e-07
6.163714031e-07
5.908594545e-07
2.670957926e-07
2.645937064e-07
2.582192392e-07
2.481756805e-07
2.342100294e-07
1.092854277e-07
1.080580617e-07
1.051063604e-07
1.003939209e-07
9.436059001e-08
4.505123791e-08
4.455312469e-08
4.337915061e-08
4.14439001e-08
3.890546762e-08
1.899595783e-08
1.883190951e-08
1.84213732e-08
1.766254325e-08
1.663871581e-08
7.899190885e-09
7.843984125e-09
7.712041479e-09
7.498931177e-09
7.199312538e-09
3.792329673e-09
3.763686009e-09
3.697090496e-09
3.595936485e-09
3.463040093e-09
2.040060178e-09
2.029041333e-09
2.004223604e-09
1.96872658e-09
1.924898582e-09
1.40957684e-09
1.408661108e-09
1.406486282e-09
1.403828321e-09
1.401652222e-09
1.300659943e-09
1.305509854e-09
1.316318639e-09
1.333487938e-09
1.357200718e-09
1.432781635e-09
1.442265873e-09
1.463413434e-09
1.495622791e-09
1.538371415e-09
1.606084955e-09
1.619212464e-09
1.648305183e-09
1.692429189e-09
1.750939795e-09
1.644360562e-09
1.660668816e-09
1.696715381e-09
1.751739517e-09
1.825233988e-09
1.502765751e-09
1.519991075e-09
1.557636057e-09
1.614470665e-09
1.68989173e-09
1.149451829e-09
1.16410577e-09
1.195647538e-09
1.242552258e-09
1.304272728e-09
6.866349954e-10
6.97761677e-10
7.216442367e-10
7.57258619e-10
8.043482582e-10
2.552197618e-10
2.637017134e-10
2.820113632e-10
3.097285775e-10
3.474942256e-10
6.271552965e-11
7.187285192e-11
8.183612631e-11
9.509003629e-11
1.124382176e-10
0
0
0
0
6.095470439e-13
0
0
0
0
0
0
0
0
0
0
0
0
0
0
0
0
0
0
0
0
0
0
0
0
0
0
0
0
4.196830501e-13
3.896050935e-13
2.234632559e-12
1.269491011e-12
0
0
0
1.309840541e-10
1.281451618e-10
1.222472788e-10
1.138411661e-10
1.033243019e-10
2.64990248e-10
2.60343235e-10
2.505534912e-10
2.363574002e-10
2.18326216e-10
3.773864946e-10
3.713515423e-10
3.588267785e-10
3.399996783e-10
3.15841487e-10
4.599237689e-10
4.522455251e-10
4.358935115e-10
4.119334567e-10
3.811643954e-10
5.342538018e-10
5.251111716e-10
5.056427978e-10
4.769242767e-10
4.408451549e-10
6.722860122e-10
6.6158509e-10
6.38855485e-10
6.057031637e-10
5.633336264e-10
9.690327206e-10
9.55283577e-10
9.260373926e-10
8.832204317e-10
8.28159424e-10
1.49851087e-09
1.479526516e-09
1.43900299e-09
1.37925565e-09
1.301538291e-09
2.248326106e-09
2.222936788e-09
2.16871272e-09
2.088702805e-09
1.984980923e-09
3.13022097e-09
3.102722958e-09
3.044524081e-09
2.959897091e-09
2.850649773e-09
4.081904158e-09
4.056372794e-09
4.002330384e-09
3.923313886e-09
3.821228693e-09
4.945235474e-09
4.920659528e-09
4.868268492e-09
4.79028763e-09
4.686517632e-09
5.634796319e-09
5.612410903e-09
5.564931173e-09
5.495181387e-09
5.404464824e-09
6.984097775e-09
6.959548518e-09
6.907514955e-09
6.830898882e-09
6.730732742e-09
9.035602276e-09
9.001304398e-09
8.928128997e-09
8.818564679e-09
8.666968008e-09
1.09922865e-08
1.094348743e-08
1.084043645e-08
1.06896027e-08
1.049494556e-08
1.222443856e-08
1.218128034e-08
1.208984252e-08
1.195528443e-08
1.17796112e-08
1.318772725e-08
1.315993101e-08
1.310243368e-08
1.30205214e-08
1.291735192e-08
1.459766056e-08
1.458519721e-08
1.456092392e-08
1.45289136e-08
1.449500472e-08
2.682182336e-05
3.158297497e-05
2.660171469e-05
2.163229534e-05
1.924112791e-05
1.850261782e-05
1.846713705e-05
1.788581788e-05
1.75475911e-05
1.693124363e-05
1.724732873e-05
1.767325747e-05
1.792268608e-05
1.848845729e-05
1.924838528e-05
1.97305499e-05
2.094366854e-05
2.340724808e-05
2.831868198e-05
3.085054475e-05
2.487096461e-05
1.594873119e-05
8.460306091e-06
3.774028031e-06
1.517577482e-06
5.718306785e-07
2.244250262e-07
9.021699755e-08
3.712728771e-08
1.595817003e-08
6.974655148e-09
3.369353271e-09
1.896401527e-09
1.401854114e-09
1.376115596e-09
1.571553464e-09
1.79727821e-09
1.88489591e-09
1.749395336e-09
1.355181531e-09
8.444729813e-10
3.813785627e-10
1.274954842e-10
1.936718921e-12
0
0
0
0
0
0
0
9.472626608e-11
2.036248522e-10
2.961243332e-10
3.562385742e-10
4.116866042e-10
5.290420024e-10
7.831370988e-10
1.236487735e-09
1.899325564e-09
2.759465336e-09
3.73563394e-09
4.595744442e-09
5.327488064e-09
6.644481911e-09
8.544147307e-09
1.033207331e-08
1.162922788e-08
1.283012785e-08
1.445830345e-08
7.077527245e-05
6.779242555e-06
2.525867837e-07
7.096143694e-08
8.474824867e-09
9.657203009e-05
0.0006663222385
3.824795358e-05
1.146629727e-06
1.170246182e-07
7.723512322e-05
0.0003358712404
3.366938223e-05
1.845139414e-06
3.843763854e-07
5.881491593e-05
0.0002384013461
0.0002576895504
1.974786474e-05
1.334797217e-06
5.124015891e-05
0.0002319896697
0.0009304473187
9.143189647e-05
6.459422495e-06
4.805390556e-05
0.0002191547622
0.0009214244782
0.0001175690437
1.078671795e-05
4.616230144e-05
0.0002028164363
0.000727379605
0.0001101171987
1.267931073e-05
4.213791958e-05
0.0001657195643
0.0005323567922
0.0001414111948
1.878602767e-05
3.952186512e-05
0.000145221715
0.0004788969492
0.00066261703
9.223203823e-05
3.652055185e-05
0.0001306109683
0.0004233137262
0.0008684620148
0.0001437429325
3.618181144e-05
0.000123105636
0.0003930427834
0.0009107673628
0.0001661711846
3.590517152e-05
0.0001176943685
0.0003688759169
0.0008582876117
0.0001773499132
3.526470426e-05
0.0001119436273
0.000332737155
0.000794055595
0.0003840588044
3.544812776e-05
0.0001076668399
0.0003078786435
0.000754096064
0.0006907289281
3.55117059e-05
0.0001024337927
0.0002876293979
0.0007018266338
0.000789490942
3.563889726e-05
9.838223979e-05
0.0002725465532
0.0006525209713
0.0008385292673
3.668250696e-05
9.66320604e-05
0.0002600894055
0.0006086871967
0.0008436366256
4.056433088e-05
0.0001050636942
0.0002694820121
0.0006154223271
0.0008201340664
4.857307688e-05
0.0001246468962
0.0003146082583
0.0006871354501
0.0007657413424
5.069251243e-05
0.0001192528363
0.0002689928573
0.0005014368369
0.0002153935869
3.647466477e-05
6.741944944e-05
0.0001166452063
0.0001731347229
0.0001757370157
2.057362821e-05
2.947608e-05
3.885698931e-05
4.452111969e-05
3.969636483e-05
9.780537718e-06
1.133928783e-05
1.183861963e-05
1.084248916e-05
8.374282125e-06
4.013576471e-06
4.021343037e-06
3.62555146e-06
2.921239769e-06
2.088986302e-06
1.535306266e-06
1.422274149e-06
1.199553131e-06
9.207440547e-07
6.448703202e-07
5.590045653e-07
4.991549582e-07
4.108228813e-07
3.129472666e-07
2.220464308e-07
2.160890408e-07
1.902023932e-07
1.560263124e-07
1.20450133e-07
8.818870306e-08
8.640613731e-08
7.57558482e-08
6.31559607e-08
4.921326133e-08
3.682473073e-08
3.533727828e-08
3.169653039e-08
2.683673328e-08
2.147837308e-08
1.601729327e-08
1.522985066e-08
1.340823416e-08
1.140887545e-08
9.607940121e-09
7.554063797e-09
6.737944879e-09
6.062385236e-09
5.217539215e-09
4.549268188e-09
3.810490548e-09
3.277057466e-09
3.041265862e-09
2.696610064e-09
2.395697652e-09
2.135027014e-09
1.87138119e-09
1.797564763e-09
1.71343629e-09
1.621931254e-09
1.543609614e-09
1.404849127e-09
1.405932588e-09
1.417041104e-09
1.44692628e-09
1.505531091e-09
1.399501278e-09
1.458169437e-09
1.5405515e-09
1.648998516e-09
1.793301777e-09
1.614011612e-09
1.711936571e-09
1.848320293e-09
2.021794219e-09
2.230404256e-09
1.860856096e-09
1.99710185e-09
2.175992087e-09
2.398952066e-09
2.66733053e-09
1.97244679e-09
2.146330654e-09
2.357278663e-09
2.579133752e-09
2.80907221e-09
1.840842665e-09
2.007316597e-09
2.189465134e-09
2.381025211e-09
2.579510896e-09
1.437887594e-09
1.578795327e-09
1.729533608e-09
1.889973781e-09
2.066028834e-09
9.12962384e-10
1.032083116e-09
1.164319318e-09
1.315103534e-09
1.457228531e-09
4.403541372e-10
5.498554725e-10
6.48479478e-10
7.422757877e-10
8.330220932e-10
1.543732275e-10
2.000412164e-10
2.469112956e-10
2.934546151e-10
3.416750683e-10
4.789607595e-12
1.320964079e-11
2.419117249e-11
3.790775774e-11
5.294472024e-11
0
0
0
0
0
0
0
0
0
0
0
0
0
0
0
0
0
0
0
0
0
0
0
0
0
0
0
0
0
0
0
0
0
0
0
7.930631194e-11
5.688801506e-11
3.697264061e-11
2.028809191e-11
7.658438341e-12
1.783818631e-10
1.393001818e-10
1.02121189e-10
6.858867367e-11
3.933676853e-11
2.632483782e-10
2.102673068e-10
1.572937238e-10
1.070496481e-10
6.258339924e-11
3.156401631e-10
2.497397625e-10
1.84261259e-10
1.22966413e-10
7.034081432e-11
3.640549373e-10
2.871932408e-10
2.132216104e-10
1.458317216e-10
8.82523536e-11
4.728270249e-10
3.822260417e-10
2.936018435e-10
2.10913157e-10
1.379968869e-10
7.086482883e-10
5.870076244e-10
4.650428366e-10
3.467629792e-10
2.352040492e-10
1.128682271e-09
9.504118747e-10
7.666466986e-10
5.801619055e-10
4.041172386e-10
1.754897564e-09
1.517450302e-09
1.275223655e-09
1.039797647e-09
8.196010262e-10
2.604275138e-09
2.351143367e-09
2.10341472e-09
1.866834075e-09
1.647109607e-09
3.588283011e-09
3.350895678e-09
3.113107523e-09
2.880700934e-09
2.657705269e-09
4.445270675e-09
4.224985577e-09
3.946594295e-09
3.693042196e-09
3.468218087e-09
5.19372326e-09
4.978324192e-09
4.760828772e-09
4.547864986e-09
4.343820314e-09
6.491258821e-09
6.243054518e-09
5.988817293e-09
5.726576259e-09
5.447075291e-09
8.323386035e-09
7.962870957e-09
7.584287876e-09
7.177904098e-09
6.775653735e-09
1.004404083e-08
9.578390806e-09
9.104905818e-09
8.648975985e-09
8.217245479e-09
1.136268656e-08
1.093346511e-08
1.054845173e-08
1.021388249e-08
9.943218988e-09
1.266895599e-08
1.245220363e-08
1.228706217e-08
1.217422972e-08
1.212484274e-08
1.437581156e-08
1.430489454e-08
1.428558486e-08
1.430209855e-08
1.432978027e-08
6.264936952e-11
3.505767305e-09
4.304311325e-10
0
0
0
0
0
0
0
0
0
0
0
0
0
0
0
0
0
0
0
0
0
0
0
0
0
0
0
0
0
0
0
0
0
0
0
0
0
0
0
0
0
0
0
0
0
0
0
0
0
0
0
0
0
0
0
0
0
2.353658904e-09
2.071179148e-08
1.689433782e-09
1.243051731e-10
0
0
0
0
0
0
0
0
0
0
0
0
0
0
0
0
0
0
0
0
0
0
0
0
0
0
0
0
0
0
0
0
0
0
0
0
0
0
0
0
0
0
0
0
0
0
0
0
0
0
0
0
0
0
0
0
1.327651196e-08
6.622225451e-10
1.219261731e-09
4.115230055e-10
2.71747099e-10
2.388970052e-10
2.286942932e-10
2.243370719e-10
2.218072017e-10
2.198143155e-10
2.179357016e-10
2.160745679e-10
2.143113679e-10
2.128241561e-10
2.118447966e-10
2.11557779e-10
2.102060916e-10
2.074659748e-10
2.0532915e-10
2.037872881e-10
2.026859487e-10
2.018503414e-10
2.011676143e-10
2.005842471e-10
2.000732174e-10
1.996160299e-10
1.992039941e-10
1.988336004e-10
1.984986845e-10
1.981937957e-10
1.979161427e-10
1.976649134e-10
1.974391009e-10
1.972408605e-10
1.970597476e-10
1.968979709e-10
1.967584606e-10
1.966224022e-10
1.964896176e-10
1.963676773e-10
1.962593856e-10
1.961580214e-10
1.960674103e-10
1.959907295e-10
1.959214486e-10
1.958557363e-10
1.957957953e-10
1.957456866e-10
1.956929722e-10
1.956560026e-10
1.956217657e-10
1.955978126e-10
1.95566942e-10
1.955465238e-10
1.954726921e-10
1.952341974e-10
1.944798514e-10
1.930801395e-10
1.940546942e-10
2.006803855e-10
9.403092917e-08
3.85645939e-09
1.989191796e-09
8.749347618e-10
6.557945545e-10
5.974929679e-10
5.75485405e-10
5.644348292e-10
5.577398066e-10
5.530733838e-10
5.494585584e-10
5.464255407e-10
5.438243381e-10
5.416984878e-10
5.402241389e-10
5.395937897e-10
5.375392123e-10
5.336863461e-10
5.306405562e-10
5.284095859e-10
5.26788263e-10
5.255451217e-10
5.245214686e-10
5.236383176e-10
5.228610514e-10
5.221682417e-10
5.215446424e-10
5.209841127e-10
5.204787851e-10
5.200227356e-10
5.196107666e-10
5.192398941e-10
5.18908405e-10
5.186184576e-10
5.183578227e-10
5.181286473e-10
5.17933368e-10
5.177467808e-10
5.175681266e-10
5.174054083e-10
5.172607123e-10
5.171282843e-10
5.170128674e-10
5.169172842e-10
5.168359844e-10
5.1676386e-10
5.166989801e-10
5.166474025e-10
5.165942094e-10
5.165643042e-10
5.165393505e-10
5.165320536e-10
5.1651237e-10
5.165216342e-10
5.165011055e-10
5.165193937e-10
5.167847733e-10
5.190715581e-10
5.289334274e-10
5.431492975e-10
5.112426063e-07
3.062977283e-08
3.530133863e-13
1.771649115e-09
1.048614226e-09
8.931261438e-10
8.509615214e-10
8.336262319e-10
8.242223247e-10
8.182585242e-10
8.141232e-10
8.110972618e-10
8.088660246e-10
8.072992573e-10
8.063895178e-10
8.061306354e-10
8.043797172e-10
8.008869341e-10
7.980527316e-10
7.959520314e-10
7.944270488e-10
7.932651736e-10
7.923128167e-10
7.914909011e-10
7.907665546e-10
7.901215476e-10
7.895428559e-10
7.890239523e-10
7.885576841e-10
7.881387818e-10
7.877627507e-10
7.874249956e-10
7.871241525e-10
7.868615545e-10
7.86627547e-10
7.864230921e-10
7.862477993e-10
7.860839765e-10
7.859300739e-10
7.857920568e-10
7.856706226e-10
7.855600211e-10
7.854648411e-10
7.853864454e-10
7.853214676e-10
7.852678097e-10
7.852227644e-10
7.851875636e-10
7.851536786e-10
7.851401995e-10
7.851333966e-10
7.851438264e-10
7.851461207e-10
7.851830229e-10
7.852367801e-10
7.855153854e-10
7.865942644e-10
7.908119397e-10
8.024966548e-10
8.155562727e-10
1.019306658e-06
1.649646228e-07
1.362064681e-08
5.186935674e-09
1.597450877e-09
1.096575729e-09
1.013186623e-09
9.886435208e-10
9.778256203e-10
9.718837269e-10
9.682125167e-10
9.658163844e-10
9.642719181e-10
9.633950753e-10
9.630965482e-10
9.632647558e-10
9.621005952e-10
9.594693098e-10
9.572811488e-10
9.556518975e-10
9.544887892e-10
9.53624278e-10
9.529255775e-10
9.523251695e-10
9.517973869e-10
9.513258443e-10
9.509041175e-10
9.505277572e-10
9.501906322e-10
9.498885916e-10
9.496186885e-10
9.493766135e-10
9.491607898e-10
9.489712066e-10
9.488022277e-10
9.486536617e-10
9.485241102e-10
9.484053948e-10
9.482966286e-10
9.4820044e-10
9.481166834e-10
9.480406743e-10
9.479752308e-10
9.479198896e-10
9.478723705e-10
9.478340312e-10
9.478041466e-10
9.477818406e-10
9.477613311e-10
9.477522457e-10
9.477476172e-10
9.477560253e-10
9.477616229e-10
9.477955737e-10
9.478678048e-10
9.481742687e-10
9.492390551e-10
9.527306739e-10
9.607357021e-10
9.686200756e-10
1.085133906e-06
4.49822148e-07
8.352650843e-08
7.058152424e-09
3.047696134e-09
1.385994146e-09
1.124311355e-09
1.069758362e-09
1.052132744e-09
1.044608599e-09
1.040872915e-09
1.038846699e-09
1.03773519e-09
1.037222866e-09
1.037164428e-09
1.037428171e-09
1.036549724e-09
1.034476027e-09
1.032739195e-09
1.031459214e-09
1.030577246e-09
1.029954525e-09
1.029471866e-09
1.029064718e-09
1.028707958e-09
1.028390249e-09
1.028107279e-09
1.027854372e-09
1.027627953e-09
1.027425572e-09
1.027244124e-09
1.027081036e-09
1.026935019e-09
1.026804798e-09
1.026687689e-09
1.026583077e-09
1.026489667e-09
1.026404483e-09
1.026326904e-09
1.02625751e-09
1.026195968e-09
1.026139731e-09
1.026090016e-09
1.026046011e-09
1.026006318e-09
1.025972018e-09
1.025942952e-09
1.025919464e-09
1.025898471e-09
1.02588285e-09
1.02586956e-09
1.025863986e-09
1.025857978e-09
1.025869461e-09
1.025910124e-09
1.026098102e-09
1.026737191e-09
1.028649495e-09
1.032542179e-09
1.036102273e-09
1.492092059e-06
6.088145038e-07
3.100564804e-07
4.03789008e-08
9.540267977e-09
3.098571653e-09
1.367571111e-09
1.137870688e-09
1.090705543e-09
1.076277235e-09
1.070720917e-09
1.068319356e-09
1.067255575e-09
1.066867699e-09
1.066881868e-09
1.067117877e-09
1.066296889e-09
1.06442657e-09
1.062837195e-09
1.06165514e-09
1.060851346e-09
1.060309754e-09
1.05991432e-09
1.059594822e-09
1.059320728e-09
1.059080134e-09
1.058867624e-09
1.058678592e-09
1.058509697e-09
1.058358499e-09
1.058222424e-09
1.058099617e-09
1.057988734e-09
1.057888373e-09
1.057797107e-09
1.057714077e-09
1.057638367e-09
1.057568743e-09
1.057504651e-09
1.057445947e-09
1.057392298e-09
1.057342508e-09
1.057296789e-09
1.057254777e-09
1.057215916e-09
1.057180381e-09
1.057147714e-09
1.057118369e-09
1.057091317e-09
1.057067279e-09
1.057044881e-09
1.057026321e-09
1.057007544e-09
1.056995905e-09
1.0569936e-09
1.05704983e-09
1.05728542e-09
1.058005288e-09
1.059402905e-09
1.060661967e-09
8.234945589e-06
9.182707289e-07
7.755949001e-07
1.923219033e-07
1.960132193e-08
1.36224012e-08
2.126714932e-09
1.241160309e-09
1.12468498e-09
1.094925793e-09
1.084365409e-09
1.080108149e-09
1.078360082e-09
1.077730297e-09
1.077642482e-09
1.077788353e-09
1.07693067e-09
1.075086413e-09
1.073492522e-09
1.072277122e-09
1.071429284e-09
1.070854276e-09
1.070443558e-09
1.070122929e-09
1.069856016e-09
1.069627133e-09
1.069428202e-09
1.069253518e-09
1.069098796e-09
1.068960782e-09
1.068836686e-09
1.068724709e-09
1.06862312e-09
1.068530585e-09
1.068445935e-09
1.06836821e-09
1.068296618e-09
1.068230301e-09
1.068168741e-09
1.068111515e-09
1.068058277e-09
1.068008377e-09
1.067961671e-09
1.067917864e-09
1.067876691e-09
1.06783807e-09
1.067801673e-09
1.067767551e-09
1.06773533e-09
1.067705143e-09
1.0676763e-09
1.06764917e-09
1.067621313e-09
1.067592751e-09
1.067558011e-09
1.067524517e-09
1.067519039e-09
1.067631653e-09
1.067934318e-09
1.068274067e-09
1.608678827e-05
1.414659275e-06
1.235400526e-06
5.70309687e-07
8.758678125e-08
7.898271142e-09
3.582693008e-09
1.533634013e-09
1.198556231e-09
1.121898136e-09
1.097172304e-09
1.087648236e-09
1.083748339e-09
1.082202982e-09
1.081706998e-09
1.081643839e-09
1.080683456e-09
1.078790494e-09
1.07714243e-09
1.075858009e-09
1.074931593e-09
1.074282729e-09
1.073812482e-09
1.073447286e-09
1.073147751e-09
1.072895298e-09
1.072679497e-09
1.072492739e-09
1.072329198e-09
1.072184474e-09
1.072055165e-09
1.071938875e-09
1.071833603e-09
1.071737807e-09
1.071650183e-09
1.071569689e-09
1.071495423e-09
1.071426603e-09
1.071362604e-09
1.071302901e-09
1.071247056e-09
1.071194597e-09
1.071145233e-09
1.071098652e-09
1.07105462e-09
1.071012954e-09
1.070973455e-09
1.070935993e-09
1.070900325e-09
1.070866361e-09
1.070833629e-09
1.070801545e-09
1.070767818e-09
1.070728419e-09
1.070673386e-09
1.070591341e-09
1.070475749e-09
1.070350361e-09
1.070275214e-09
1.07032775e-09
2.180498619e-05
2.052485815e-06
1.164005618e-06
1.400480961e-06
3.058570413e-07
3.076856531e-08
1.395332172e-08
2.357262522e-09
1.301522496e-09
1.146996293e-09
1.106620046e-09
1.092463088e-09
1.086827265e-09
1.084515077e-09
1.083632523e-09
1.083349507e-09
1.082267878e-09
1.080301035e-09
1.078588196e-09
1.07723495e-09
1.076232556e-09
1.075507358e-09
1.074968221e-09
1.074544685e-09
1.074197148e-09
1.073906148e-09
1.073660098e-09
1.073449848e-09
1.073267865e-09
1.073108319e-09
1.072966882e-09
1.072840387e-09
1.07272642e-09
1.072623108e-09
1.072528931e-09
1.072442664e-09
1.07236327e-09
1.07228988e-09
1.07222176e-09
1.072158298e-09
1.072098965e-09
1.07204331e-09
1.07199096e-09
1.071941587e-09
1.07189492e-09
1.071850716e-09
1.071808785e-09
1.071768938e-09
1.07173093e-09
1.071694534e-09
1.071659254e-09
1.071623969e-09
1.07158598e-09
1.071539132e-09
1.071471202e-09
1.071365132e-09
1.071207199e-09
1.071007451e-09
1.070829535e-09
1.070822095e-09
2.408884503e-05
2.556513743e-06
9.009032465e-07
2.734414073e-06
8.396924057e-07
9.965535575e-08
8.509756204e-09
3.569458134e-09
1.518319541e-09
1.189596088e-09
1.120171804e-09
1.098746819e-09
1.090410838e-09
1.086809897e-09
1.085236434e-09
1.084565287e-09
1.083275726e-09
1.081194996e-09
1.079407098e-09
1.077990664e-09
1.076923164e-09
1.076130553e-09
1.075526507e-09
1.075043734e-09
1.074643916e-09
1.074308418e-09
1.074025991e-09
1.07378686e-09
1.073582112e-09
1.073404407e-09
1.073248189e-09
1.0731094e-09
1.072985038e-09
1.07287283e-09
1.07277098e-09
1.072678041e-09
1.072592809e-09
1.072514281e-09
1.072441611e-09
1.072374089e-09
1.072311114e-09
1.072252189e-09
1.072196893e-09
1.072144856e-09
1.072095767e-09
1.072049325e-09
1.072005323e-09
1.071963532e-09
1.071923683e-09
1.071885439e-09
1.071848158e-09
1.071810285e-09
1.071768488e-09
1.07171543e-09
1.071638156e-09
1.071519276e-09
1.071346214e-09
1.071129679e-09
1.07093502e-09
1.07093865e-09
5.56860508e-05
6.533600134e-06
1.080587342e-06
3.577672206e-06
1.915516053e-06
2.687827477e-07
2.160007036e-08
7.887451539e-09
1.987444236e-09
1.283442556e-09
1.14871695e-09
1.110768431e-09
1.096420676e-09
1.09010862e-09
1.087182176e-09
1.085806697e-09
1.084157672e-09
1.081904766e-09
1.080031221e-09
1.078560136e-09
1.077442954e-09
1.076597431e-09
1.075938824e-09
1.075402539e-09
1.074952124e-09
1.074570793e-09
1.074249032e-09
1.073977746e-09
1.073747435e-09
1.073549489e-09
1.073377034e-09
1.073224955e-09
1.0730895e-09
1.07296789e-09
1.072857982e-09
1.072758076e-09
1.072666782e-09
1.072582951e-09
1.072505622e-09
1.072433985e-09
1.07236737e-09
1.072305214e-09
1.072247045e-09
1.072192438e-09
1.072141035e-09
1.072092497e-09
1.072046587e-09
1.072003043e-09
1.07196156e-09
1.071921658e-09
1.071882487e-09
1.071842107e-09
1.071796502e-09
1.071737574e-09
1.071652523e-09
1.071525405e-09
1.07134682e-09
1.071130784e-09
1.070942723e-09
1.070983046e-09
0.0001093716409
1.448256426e-05
1.825732122e-06
3.192739896e-06
3.892379107e-06
6.399608274e-07
5.648197685e-08
1.513475509e-08
2.771143701e-09
1.372327461e-09
1.163879221e-09
1.11587611e-09
1.099227904e-09
1.091952802e-09
1.08845285e-09
1.086698617e-09
1.0848119e-09
1.082438393e-09
1.080511428e-09
1.079014016e-09
1.077872709e-09
1.076996298e-09
1.076300178e-09
1.075722566e-09
1.075229233e-09
1.074805718e-09
1.074445175e-09
1.074140529e-09
1.073882909e-09
1.073663147e-09
1.073473299e-09
1.073307174e-09
1.073160169e-09
1.07302889e-09
1.072910765e-09
1.072803794e-09
1.072706376e-09
1.072617208e-09
1.07253521e-09
1.072459479e-09
1.072389266e-09
1.072323931e-09
1.072262937e-09
1.072205809e-09
1.072152146e-09
1.072101589e-09
1.072053857e-09
1.072008644e-09
1.071965587e-09
1.071924037e-09
1.07188289e-09
1.071839843e-09
1.071790254e-09
1.071725554e-09
1.071633503e-09
1.071500152e-09
1.071319526e-09
1.071108752e-09
1.070933388e-09
1.071022744e-09
0.0001391629241
2.100624851e-05
2.847182599e-06
2.690702912e-06
6.83766922e-06
1.198384696e-06
1.149602426e-07
1.639471684e-08
4.003828458e-09
1.570791029e-09
1.200775172e-09
1.127716307e-09
1.104701907e-09
1.09490332e-09
1.090136072e-09
1.087675271e-09
1.085390479e-09
1.082834975e-09
1.080847209e-09
1.079339966e-09
1.078199899e-09
1.077317958e-09
1.076606697e-09
1.076006005e-09
1.075483663e-09
1.0750275e-09
1.074633612e-09
1.074297847e-09
1.074013228e-09
1.073771136e-09
1.073563229e-09
1.073382522e-09
1.073223621e-09
1.073082479e-09
1.072956049e-09
1.072841992e-09
1.072738469e-09
1.072644007e-09
1.072557399e-09
1.07247764e-09
1.072403894e-09
1.072335443e-09
1.072271681e-09
1.072212089e-09
1.072156232e-09
1.072103724e-09
1.072054224e-09
1.072007369e-09
1.071962719e-09
1.071919434e-09
1.071876129e-09
1.071830135e-09
1.071776323e-09
1.071705935e-09
1.071607449e-09
1.071469028e-09
1.071287932e-09
1.071083658e-09
1.070922053e-09
1.071060418e-09
0.0001621284803
2.665749691e-05
4.021712593e-06
2.695698334e-06
9.82378018e-06
1.641291352e-06
1.664267423e-07
2.265815143e-08
6.846540157e-09
2.233364129e-09
1.339620018e-09
1.165363258e-09
1.118574428e-09
1.10105075e-09
1.093071447e-09
1.089073806e-09
1.086010597e-09
1.083123428e-09
1.081031918e-09
1.079518976e-09
1.078399204e-09
1.077536369e-09
1.076834398e-09
1.076232347e-09
1.075699315e-09
1.075224997e-09
1.074808093e-09
1.07444758e-09
1.074139253e-09
1.073876193e-09
1.073650614e-09
1.073455342e-09
1.073284475e-09
1.073133427e-09
1.072998703e-09
1.072877619e-09
1.072768083e-09
1.072668438e-09
1.072577334e-09
1.072493656e-09
1.072416478e-09
1.072345002e-09
1.072278562e-09
1.072216597e-09
1.07215863e-09
1.072104241e-09
1.072053023e-09
1.072004543e-09
1.071958259e-09
1.071913129e-09
1.071867482e-09
1.071818292e-09
1.071760075e-09
1.071684109e-09
1.071579724e-09
1.071437181e-09
1.071256641e-09
1.071059188e-09
1.070910654e-09
1.071091715e-09
0.0001762811557
3.111521129e-05
5.261110753e-06
3.760123447e-06
9.961299279e-06
1.469151457e-06
1.564089034e-07
2.067570507e-08
8.488830467e-09
2.738898077e-09
1.462635222e-09
1.188355662e-09
1.123954154e-09
1.103030882e-09
1.09405126e-09
1.089541258e-09
1.086129871e-09
1.083108304e-09
1.0810019e-09
1.079525223e-09
1.078455745e-09
1.077637667e-09
1.076968276e-09
1.076386212e-09
1.075861814e-09
1.075386109e-09
1.074959554e-09
1.074583739e-09
1.074257595e-09
1.073976818e-09
1.073735171e-09
1.073526055e-09
1.073343545e-09
1.073182766e-09
1.073039881e-09
1.072911902e-09
1.07279649e-09
1.072691798e-09
1.072596329e-09
1.072508852e-09
1.07242835e-09
1.072353953e-09
1.072284937e-09
1.072220695e-09
1.072160703e-09
1.072104492e-09
1.072051595e-09
1.072001497e-09
1.071953521e-09
1.071906414e-09
1.071858221e-09
1.071805582e-09
1.071742764e-09
1.071661235e-09
1.071551325e-09
1.071405338e-09
1.071225971e-09
1.071035272e-09
1.070898494e-09
1.071114211e-09
0.00017792099
3.271790124e-05
8.042650361e-06
2.405434737e-05
6.421104616e-06
7.959220707e-07
9.751014306e-08
1.46528106e-08
9.546543931e-09
4.316055501e-09
2.022689964e-09
1.319588191e-09
1.156986399e-09
1.113897707e-09
1.098468757e-09
1.091419417e-09
1.086775265e-09
1.083235467e-09
1.080951084e-09
1.079449553e-09
1.078414769e-09
1.077646741e-09
1.077024867e-09
1.076482253e-09
1.075987694e-09
1.07553105e-09
1.075111348e-09
1.074729797e-09
1.074390788e-09
1.074094653e-09
1.073837848e-09
1.073614989e-09
1.073420525e-09
1.073249552e-09
1.073098032e-09
1.072962725e-09
1.072841065e-09
1.072731008e-09
1.072630903e-09
1.072539394e-09
1.072455371e-09
1.072377889e-09
1.072306165e-09
1.072239529e-09
1.072177404e-09
1.07211926e-09