/*--------------------------------*- C++ -*----------------------------------*\
  =========                 |
  \\      /  F ield         | OpenFOAM: The Open Source CFD Toolbox
   \\    /   O peration     | Website:  https://openfoam.org
    \\  /    A nd           | Version:  10
     \\/     M anipulation  |
\*---------------------------------------------------------------------------*/
FoamFile
{
    format      ascii;
    class       volScalarField;
    location    "0.0250188088";
    object      CH3O_0;
}
// * * * * * * * * * * * * * * * * * * * * * * * * * * * * * * * * * * * * * //

dimensions      [0 0 0 0 0 0 0];

internalField   nonuniform List<scalar> 
5170
(
0
0
0
0
0
0
0
0
0
0
0
0
0
0
0
0
0
0
0
0
0
0
0
0
0
0
0
0
0
0
0
0
0
0
0
0
0
0
0
0
0
0
0
0
0
0
0
0
0
0
0
0
0
0
0
0
0
0
0
0
0
0
0
0
0
0
0
0
0
0
0
0
0
0
0
0
0
0
0
0
0
0
0
0
0
0
0
0
0
0
0
0
0
0
0
0
0
0
0
7.949775853e-09
8.652382347e-20
4.299038188e-20
3.910499392e-20
3.805688765e-20
3.819854229e-20
3.77541531e-20
1.636181766e-20
1.112852078e-20
4.690740164e-21
7.538132211e-21
6.622267522e-21
9.286100904e-21
7.033636317e-21
1.688227247e-24
2.265533619e-21
1.876319427e-21
3.784231649e-21
3.831675176e-21
0
0
0
0
0
2.098868787e-19
1.933165882e-18
0
7.137619382e-18
4.048956008e-18
8.097066027e-18
0
3.435713332e-17
0
0
0
0
0
0
0
0
0
0
0
0
3.717012086e-15
4.973965966e-16
0
1.753520983e-16
5.455497369e-15
0
0
0
0
1.953578381e-15
0
0
0
0
0
0
0
0
0
0
0
0
0
0
0
0
0
0
0
0
0
0
0
0
0
0
0
0
0
0
0
0
0
0
0
0
0
5.714421407e-11
0
0
0
0
1.014119353e-08
5.405896799e-10
1.035634157e-10
9.325845418e-12
2.558209279e-13
0
0
3.668614713e-08
6.37297993e-07
9.460492075e-06
0
4.325058201e-09
1.43566386e-07
1.598309749e-06
1.313515294e-05
0
1.80770282e-08
2.744375328e-07
2.445777646e-06
1.182243634e-05
1.549847136e-10
4.237899129e-08
4.273904153e-07
2.958203082e-06
9.10529795e-06
5.50348507e-09
8.242935846e-08
6.287069398e-07
3.1374568e-06
6.705124964e-06
1.735613022e-08
1.382122651e-07
7.968719766e-07
3.064336861e-06
5.041715874e-06
3.788813461e-08
2.111044851e-07
9.541138497e-07
2.880431253e-06
3.996448422e-06
6.50215143e-08
2.654854505e-07
1.088956316e-06
2.643486087e-06
3.226947438e-06
9.772970335e-08
3.101549701e-07
1.191354702e-06
2.384657223e-06
2.620311807e-06
1.459058048e-07
4.091831328e-07
1.250770373e-06
2.101013578e-06
2.068081989e-06
2.154155594e-07
5.249217879e-07
1.272288767e-06
1.845513129e-06
1.672555343e-06
2.856429041e-07
6.393427184e-07
1.257415917e-06
1.614153467e-06
1.356283335e-06
3.944962651e-07
7.383409276e-07
1.20419453e-06
1.380088338e-06
1.065553705e-06
5.213359593e-07
8.073973433e-07
1.12315049e-06
1.16397529e-06
8.426588247e-07
6.4428175e-07
8.415693304e-07
1.020910015e-06
9.65415577e-07
6.668474149e-07
7.182561607e-07
8.292324978e-07
8.97314059e-07
7.771232047e-07
5.154543702e-07
7.27554857e-07
7.72557115e-07
7.628423281e-07
6.128580555e-07
4.044255509e-07
6.73869356e-07
6.741380973e-07
6.127693653e-07
4.647225869e-07
2.955659599e-07
5.666840421e-07
5.503534238e-07
4.782970875e-07
3.595934366e-07
2.519039451e-07
4.356769253e-07
4.12193014e-07
3.537514625e-07
2.769400168e-07
2.131221433e-07
3.066835476e-07
2.912996657e-07
2.597818923e-07
2.240070205e-07
1.987805968e-07
2.394760901e-07
2.366222145e-07
2.32230233e-07
2.313048173e-07
2.405669818e-07
2.46764509e-07
2.52054917e-07
2.649604448e-07
2.879568245e-07
3.252016026e-07
2.730120397e-07
2.805061577e-07
2.976595548e-07
3.252063265e-07
3.650298729e-07
2.613698111e-07
2.663335514e-07
2.77138604e-07
2.931739643e-07
3.140711546e-07
1.920701537e-07
1.933663861e-07
1.958041358e-07
1.989261366e-07
2.021401085e-07
1.111313037e-07
1.109501349e-07
1.102764858e-07
1.088982021e-07
1.067240336e-07
5.438014001e-08
5.401659684e-08
5.308304832e-08
5.156556981e-08
4.948744088e-08
2.392953756e-08
2.37132101e-08
2.318781117e-08
2.235917397e-08
2.124832486e-08
9.916886219e-09
9.840909734e-09
9.654633858e-09
9.282476923e-09
8.764224969e-09
3.793469362e-09
3.767372845e-09
3.71122299e-09
3.641105737e-09
3.481371921e-09
1.668897299e-09
1.654487703e-09
1.621471268e-09
1.572766983e-09
1.508262822e-09
8.005808339e-10
7.947124106e-10
7.810331155e-10
7.637776732e-10
7.430700794e-10
4.974628236e-10
4.964167912e-10
4.941032509e-10
4.911024541e-10
4.879507275e-10
4.214242074e-10
4.22026963e-10
4.238487383e-10
4.269165536e-10
4.314293782e-10
4.295053292e-10
4.317795233e-10
4.368871636e-10
4.446970142e-10
4.551068058e-10
4.547917324e-10
4.579297821e-10
4.648991577e-10
4.754551394e-10
4.893935954e-10
4.435422023e-10
4.474912942e-10
4.561413937e-10
4.695082118e-10
4.873267561e-10
3.896232375e-10
3.939777958e-10
4.035139588e-10
4.179402493e-10
4.371544188e-10
2.850744609e-10
2.886490656e-10
2.963004934e-10
3.075988655e-10
3.223808552e-10
1.578091177e-10
1.60262442e-10
1.655066487e-10
1.732860651e-10
1.835268352e-10
4.413594857e-11
4.597713238e-11
4.995196403e-11
5.592614026e-11
6.38106749e-11
1.393999227e-11
1.71080119e-11
1.907033359e-11
2.12512003e-11
2.391021732e-11
2.364020374e-13
2.983703529e-13
3.560171345e-13
4.614943067e-13
6.389347136e-13
0
0
0
0
0
0
0
0
0
0
0
0
0
0
0
2.838301215e-12
2.793041475e-12
2.707770409e-12
2.591910196e-12
2.462734154e-12
3.782871392e-12
3.716215251e-12
3.562160129e-12
3.311657603e-12
2.970280546e-12
1.367681942e-12
1.347917019e-12
1.295708843e-12
1.179423346e-12
1.015670525e-12
0
0
0
0
0
2.488931904e-11
2.439729943e-11
2.337293606e-11
2.190833339e-11
2.009677581e-11
5.362447652e-11
5.265027699e-11
5.059795326e-11
4.762759304e-11
4.389157081e-11
7.507819359e-11
7.375586507e-11
7.094161925e-11
6.680912602e-11
6.149120188e-11
8.523511313e-11
8.365928802e-11
8.030968513e-11
7.541894258e-11
6.916820676e-11
9.770140977e-11
9.584642625e-11
9.191431692e-11
8.618178756e-11
7.886228733e-11
1.22701041e-10
1.204718128e-10
1.157516758e-10
1.089075304e-10
1.002328743e-10
1.799012162e-10
1.770851387e-10
1.711133612e-10
1.624180566e-10
1.513204434e-10
2.747960224e-10
2.710188612e-10
2.629811998e-10
2.512010859e-10
2.360262849e-10
3.997291258e-10
3.945600038e-10
3.835273402e-10
3.673002292e-10
3.463681096e-10
5.529373637e-10
5.466571608e-10
5.332328389e-10
5.134191479e-10
4.8774552e-10
7.340531043e-10
7.264754794e-10
7.102954369e-10
6.864424041e-10
6.555237067e-10
8.781990748e-10
8.714983366e-10
8.574083926e-10
8.371178373e-10
8.114529496e-10
1.037682187e-09
1.029313149e-09
1.01140452e-09
9.849224719e-10
9.504328348e-10
1.275143009e-09
1.265138013e-09
1.243704283e-09
1.21195828e-09
1.170561256e-09
1.607464386e-09
1.594975095e-09
1.568210334e-09
1.528529831e-09
1.476658063e-09
1.958197906e-09
1.941760923e-09
1.906535092e-09
1.854384261e-09
1.786540986e-09
2.148698673e-09
2.13210243e-09
2.096671602e-09
2.044409374e-09
1.976376494e-09
2.364036416e-09
2.351690122e-09
2.325795973e-09
2.288533237e-09
2.241336205e-09
2.843758362e-09
2.838140503e-09
2.826953206e-09
2.811792104e-09
2.793729598e-09
1.406029956e-05
1.351605932e-05
1.024736403e-05
7.233577252e-06
5.113886667e-06
3.778649105e-06
2.993456273e-06
2.389200982e-06
1.922622265e-06
1.474078767e-06
1.199319456e-06
9.712598961e-07
7.486844929e-07
5.995071794e-07
4.862367914e-07
3.771393186e-07
3.0077602e-07
2.361136093e-07
2.09488135e-07
1.91774537e-07
1.956664689e-07
2.573082631e-07
3.618444719e-07
4.00212535e-07
3.31067741e-07
2.045845899e-07
1.051743203e-07
4.804503555e-08
2.043661021e-08
8.390153276e-09
3.372070666e-09
1.462409413e-09
7.297436167e-10
4.865232007e-10
4.351365967e-10
4.63134982e-10
5.002499702e-10
5.016529897e-10
4.516591827e-10
3.345310533e-10
1.922770821e-10
7.165376884e-11
2.60615051e-11
6.461046575e-13
0
0
0
2.372919763e-12
2.731205253e-12
8.877454275e-13
0
1.865453871e-11
4.092562992e-11
5.716258425e-11
6.413985372e-11
7.296311921e-11
9.328728579e-11
1.423241525e-10
2.235769187e-10
3.292638498e-10
4.666062978e-10
6.300689505e-10
7.889817106e-10
9.218585597e-10
1.136251552e-09
1.43344569e-09
1.730679891e-09
1.919313965e-09
2.201538839e-09
2.777652189e-09
3.083635605e-06
2.205187328e-07
6.288235887e-09
2.31881919e-10
1.538462421e-11
2.622324133e-06
8.756330528e-07
5.090244689e-08
1.544655159e-09
3.91175146e-10
2.222083152e-06
6.024462485e-07
5.763856146e-08
3.154763817e-09
2.499845845e-09
1.743718454e-06
4.909952473e-07
1.222699561e-07
9.659741787e-09
3.052668351e-09
1.355994794e-06
4.013883814e-07
3.713271266e-07
3.748508837e-08
3.803676182e-09
1.103787825e-06
3.780850336e-07
5.043730833e-07
6.363726654e-08
6.464909473e-09
9.787604739e-07
4.23124754e-07
5.146882619e-07
7.472006593e-08
8.723280365e-09
8.501616272e-07
3.764985394e-07
4.007262176e-07
8.676011151e-08
1.158743464e-08
7.566811915e-07
3.270769138e-07
3.659413418e-07
1.852178435e-07
2.744386645e-08
5.609573885e-07
2.728279871e-07
2.967963885e-07
2.59086993e-07
4.236222739e-08
5.226314314e-07
2.532635663e-07
2.767420246e-07
2.964728945e-07
5.392336586e-08
4.380273962e-07
2.34072856e-07
2.796561372e-07
3.219577028e-07
6.640113279e-08
3.200240651e-07
2.051367404e-07
2.511283282e-07
3.318002777e-07
1.097222848e-07
2.900824167e-07
1.927815892e-07
2.319869514e-07
3.2898238e-07
1.560174655e-07
2.483914919e-07
1.71837161e-07
2.178898556e-07
3.185858166e-07
1.827504956e-07
2.092952129e-07
1.512833934e-07
2.069266273e-07
3.064886195e-07
2.068701753e-07
1.763917604e-07
1.372814533e-07
2.001367682e-07
2.984790035e-07
2.28125018e-07
1.597292001e-07
1.487539791e-07
2.127754626e-07
3.125842335e-07
2.338108542e-07
1.589354571e-07
1.720799542e-07
2.590068812e-07
3.675618086e-07
2.343876602e-07
1.703418248e-07
2.275195442e-07
4.070198172e-07
6.934714453e-07
3.900456534e-07
1.965939727e-07
2.855601289e-07
5.477085745e-07
1.190106266e-06
2.424084098e-06
2.825282085e-07
4.117800712e-07
7.317219932e-07
1.475041883e-06
3.048041484e-06
4.164548217e-07
5.817052011e-07
8.781681114e-07
1.361463547e-06
2.031048171e-06
4.546037856e-07
5.727325579e-07
7.207326447e-07
8.682734366e-07
9.512858773e-07
3.595184266e-07
4.026508932e-07
4.318445503e-07
4.318257051e-07
3.924893696e-07
2.114047847e-07
2.133706575e-07
2.034870188e-07
1.811447123e-07
1.489721397e-07
1.049207847e-07
9.937183021e-08
8.879086259e-08
7.458342536e-08
5.886577323e-08
4.694242869e-08
4.291563519e-08
3.720062471e-08
3.009455203e-08
2.303647096e-08
1.958279707e-08
1.790349283e-08
1.536590802e-08
1.224411688e-08
9.035810737e-09
8.009894584e-09
7.001907565e-09
6.001203065e-09
4.993676824e-09
3.836297596e-09
3.249937901e-09
2.88788368e-09
2.430059361e-09
2.090252146e-09
1.711193465e-09
1.416302543e-09
1.298766116e-09
1.121054245e-09
9.656345156e-10
8.339110975e-10
7.179329689e-10
6.79468915e-10
6.382156969e-10
5.872816332e-10
5.40604543e-10
4.859834973e-10
4.771442795e-10
4.675008986e-10
4.665820814e-10
4.776384934e-10
4.392947327e-10
4.508210589e-10
4.680844566e-10
4.940281971e-10
5.250876624e-10
4.7276567e-10
4.959195887e-10
5.27221845e-10
5.663504951e-10
6.122382558e-10
5.145858162e-10
5.460112856e-10
5.86714287e-10
6.365236261e-10
6.954831796e-10
5.222313732e-10
5.635423637e-10
6.145634502e-10
6.635187907e-10
7.084163321e-10
4.734673085e-10
5.127565843e-10
5.538781777e-10
5.93114559e-10
6.290505325e-10
3.539482377e-10
3.851690318e-10
4.161419403e-10
4.457454337e-10
4.778655178e-10
2.073007692e-10
2.328553877e-10
2.60292878e-10
2.939912368e-10
3.197526132e-10
8.530796617e-11
1.129380981e-10
1.328895578e-10
1.475392784e-10
1.581666368e-10
2.993608193e-11
3.596167464e-11
4.044625629e-11
4.241522157e-11
4.346477601e-11
5.070015885e-13
5.767521352e-13
2.929884855e-13
8.045472104e-13
1.440929896e-12
0
0
0
0
0
0
0
0
0
0
0
0
0
2.200690706e-13
7.771722668e-13
2.199553785e-12
2.209783776e-12
1.913990151e-12
1.291144651e-12
3.838308235e-13
2.373141682e-12
1.726404256e-12
1.028930026e-12
0
0
5.700318687e-13
0
0
0
0
0
0
0
0
0
1.592679589e-11
1.200793301e-11
8.465053425e-12
5.443168455e-12
3.001669265e-12
3.577226559e-11
2.781752986e-11
2.009961646e-11
1.276871442e-11
6.367217103e-12
4.983344219e-11
3.806073863e-11
2.686940134e-11
1.703418159e-11
9.023337381e-12
5.5982037e-11
4.29113502e-11
3.040991818e-11
1.899197261e-11
9.625194474e-12
6.330235345e-11
4.806358257e-11
3.368481187e-11
2.119273363e-11
1.117979672e-11
8.195116342e-11
6.400898077e-11
4.690247702e-11
3.152418027e-11
1.865920284e-11
1.27467131e-10
1.0360855e-10
8.02000141e-11
5.814034138e-11
3.832816713e-11
2.028999209e-10
1.690171556e-10
1.348012589e-10
1.010340308e-10
6.976997793e-11
3.009336537e-10
2.545086198e-10
2.072274316e-10
1.61974548e-10
1.193905388e-10
4.312332694e-10
3.72881568e-10
3.13716938e-10
2.558305879e-10
2.02142081e-10
5.876780087e-10
5.180561192e-10
4.488541213e-10
3.843220302e-10
3.256070403e-10
7.511926373e-10
6.813176226e-10
5.878028108e-10
4.991729739e-10
4.155562539e-10
8.740344067e-10
7.91857434e-10
7.038735533e-10
6.131526913e-10
5.221781939e-10
1.078812515e-09
9.810118114e-10
8.768980157e-10
7.68091724e-10
6.564922871e-10
1.360979953e-09
1.236320313e-09
1.101328933e-09
9.562088947e-10
8.071336283e-10
1.637666066e-09
1.478936979e-09
1.305496539e-09
1.127431567e-09
9.438650502e-10
1.822015542e-09
1.652791357e-09
1.491930985e-09
1.3390115e-09
1.198182051e-09
2.132179642e-09
2.025458784e-09
1.927289886e-09
1.844462963e-09
1.784836601e-09
2.744453423e-09
2.713580825e-09
2.707958666e-09
2.709956097e-09
2.710404632e-09
4.049283549e-11
0
0
0
0
0
0
0
0
0
0
0
0
0
0
0
0
0
0
0
0
0
0
0
0
0
0
0
0
0
0
0
0
0
0
0
0
0
0
0
0
0
0
0
0
0
0
0
0
0
0
0
0
0
0
0
0
0
0
0
5.92853758e-10
1.617632323e-09
0
0
0
0
0
0
0
0
0
0
0
0
0
0
0
0
0
0
0
0
0
0
0
0
0
0
0
0
0
0
0
0
0
0
0
0
0
0
0
0
0
0
0
0
0
0
0
0
0
0
0
0
0
0
0
0
0
0
2.781856827e-09
0
0
0
0
0
0
0
0
0
0
0
0
0
0
0
0
0
0
0
0
0
0
0
0
0
0
0
0
0
0
0
0
0
0
0
0
0
0
0
0
0
0
0
0
0
0
0
0
0
0
0
0
0
0
0
0
0
0
0
1.10547349e-08
1.325173514e-09
0
0
0
0
0
0
0
0
0
0
0
0
0
0
0
0
0
0
0
0
0
0
0
0
0
0
0
0
0
0
0
0
0
0
0
0
0
0
0
0
0
0
0
0
0
0
0
0
0
0
0
0
0
0
0
0
0
0
1.189314951e-08
1.082647933e-08
0
0
0
0
0
0
0
0
0
0
0
0
0
0
0
0
0
0
0
0
0
0
0
0
0
0
0
0
0
0
0
0
0
0
0
0
0
0
0
0
0
0
0
0
0
0
0
0
0
0
0
0
0
0
0
0
0
0
6.827316294e-09
3.204348504e-08
5.779372786e-09
2.20856261e-09
0
0
0
0
0
0
0
0
0
0
0
0
0
0
0
0
0
0
0
0
0
0
0
0
0
0
0
0
0
0
0
0
0
0
0
0
0
0
0
0
0
0
0
0
0
0
0
0
0
0
0
0
0
0
0
0
3.353481784e-09
2.266161919e-08
2.95891469e-08
3.028667316e-09
9.964854085e-10
0
0
0
0
0
0
0
0
0
0
0
0
0
0
0
0
0
0
0
0
0
0
0
0
0
0
0
0
0
0
0
0
0
0
0
0
0
0
0
0
0
0
0
0
0
0
0
0
0
0
0
0
0
0
0
1.884548842e-09
1.086778366e-08
5.384998541e-08
1.862197149e-08
3.013089758e-09
7.361114301e-10
0
0
0
0
0
0
0
0
0
0
0
0
0
0
0
0
0
0
0
0
0
0
0
0
0
0
0
0
0
0
0
0
0
0
0
0
0
0
0
0
0
0
0
0
0
0
0
0
0
0
0
0
0
0
3.059546891e-09
6.075437853e-09
4.714999257e-08
6.274268511e-08
1.162220529e-08
5.558407058e-09
3.11632312e-10
0
0
0
0
0
0
0
0
0
0
0
0
0
0
0
0
0
0
0
0
0
0
0
0
0
0
0
0
0
0
0
0
0
0
0
0
0
0
0
0
0
0
0
0
0
0
0
0
0
0
0
0
0
6.222470868e-09
3.682088199e-09
3.067839373e-08
1.027418732e-07
4.498564169e-08
5.410581475e-09
1.842341633e-09
0
0
0
0
0
0
0
0
0
0
0
0
0
0
0
0
0
0
0
0
0
0
0
0
0
0
0
0
0
0
0
0
0
0
0
0
0
0
0
0
0
0
0
0
0
0
0
0
0
0
0
0
0
8.845660573e-09
7.401801385e-10
1.673979176e-08
1.088267179e-07
1.182208326e-07
2.378234394e-08
8.202767244e-09
6.988585303e-10
0
0
0
0
0
0
0
0
0
0
0
0
0
0
0
0
0
0
0
0
0
0
0
0
0
0
0
0
0
0
0
0
0
0
0
0
0
0
0
0
0
0
0
0
0
0
0
0
0
0
0
0
9.52623012e-09
2.057216549e-09
1.09860928e-08
9.776479586e-08
2.163730218e-07
7.399395699e-08
7.886164484e-09
2.439984377e-09
1.105105373e-10
0
0
0
0
0
0
0
0
0
0
0
0
0
0
0
0
0
0
0
0
0
0
0
0
0
0
0
0
0
0
0
0
0
0
0
0
0
0
0
0
0
0
0
0
0
0
0
0
0
0
0
1.625651379e-08
2.962571818e-09
8.084465941e-09
7.371969883e-08
3.028556383e-07
1.856925275e-07
2.474170197e-08
6.627962542e-09
5.653717715e-10
0
0
0
0
0
0
0
0
0
0
0
0
0
0
0
0
0
0
0
0
0
0
0
0
0
0
0
0
0
0
0
0
0
0
0
0
0
0
0
0
0
0
0
0
0
0
0
0
0
0
0
2.528577282e-08
5.152379277e-09
8.713576606e-09
5.796375913e-08
3.943074491e-07
4.174137978e-07
7.41323124e-08
1.776271139e-08
1.409003252e-09
1.296809765e-11
0
0
0
0
0
0
0
0
0
0
0
0
0
0
0
0
0
0
0
0
0
0
0
0
0
0
0
0
0
0
0
0
0
0
0
0
0
0
0
0
0
0
0
0
0
0
0
0
0
0
3.259400319e-08
7.222197505e-09
8.713485513e-09
6.289226237e-08
5.320051464e-07
8.122802608e-07
1.712286921e-07
2.350194459e-08
3.342224658e-09
1.484560972e-10
0
0
0
0
0
0
0
0
0
0
0
0
0
0
0
0
0
0
0
0
0
0
0
0
0
0
0
0
0
0
0
0
0
0
0
0
0
0
0
0
0
0
0
0
0
0
0
0
0
0
4.022531495e-08
8.355796472e-09
1.374612636e-08
9.494465588e-08
8.326573379e-07
1.379837292e-06
2.873361221e-07
3.327345128e-08
4.918981034e-09
2.913570082e-10
0
0
0
0
0
0
0
0
0
0
0
0
0
0
0
0
0
0
0
0
0
0
0
0
0
0
0
0
0
0
0
0
0
0
0
0
0
0
0
0
0
0
0
0
0
0
0
0
0
0
4.848085364e-08
1.310669363e-08
3.020061988e-08
2.009513853e-07
1.69453495e-06
1.778040555e-06
3.167632608e-07
3.614603656e-08
6.257601749e-09
3.840638806e-10
0
0
0
0
0
0
0
0
0
0
0
0
0
0
0
0
0
0
0
0
0
0
0
0
0
0
0
0
0
0
0
0
0
0
0
0
0
0
0
0
0
0
0
0
0
0
0
0
0
0
5.446898522e-08
3.285474655e-08
1.416736013e-07
9.658162963e-07
3.961446069e-06
1.470643409e-06
2.315337432e-07
2.417678901e-08
4.485798969e-09
4.121957229e-10
0
0
0
0
0
0
0
0
0
0
0
0
0
0
0
0
0
0
0
0
0
0
0
0
0
0
0
0
0
0
0
0
0
0
0
0
0
0
0
0
0
0
0
0
0
0
0
0
0
0
7.071182865e-08
1.177702896e-07
5.840360382e-07
4.076471844e-06
3.840331232e-06
7.853431896e-07
1.123840368e-07
2.113279247e-08
4.290103276e-09
1.181203119e-09
8.056893801e-12
0
0
0
0
0
0
0
0
0
0
0
0
0
0
0
0
0
0
0
0
0
0
0
0
0
0
0
0
0
0
0
0
0
0
0
0
0
0
0
0
0
0
0
0
0
0
0
0
0
3.783792946e-07
1.014453139e-06
5.244011558e-06
6.774741416e-06
1.876360748e-06
3.481154443e-07
5.315538647e-08
1.165125981e-08
2.909850232e-09
1.180923397e-09
4.899031434e-10
0
0
0
0
0
0
0
0
0
0
0
0
0
0
0
0
0
0
0
0
0
0
0
0
0
0
0
0
0
0
0
0
0
0
0
0
0
0
0
0
0
0
0
0
0
0
0
0
0
3.721568643e-06
7.427751408e-06
7.910498268e-06
2.9580242e-06
7.23919175e-07
1.476985826e-07
2.707872491e-08
6.363928543e-09
1.907545878e-09
8.427754964e-10
8.774071552e-10
3.952728884e-10
0
0
0
0
0
0
0
0
0
0
0
0
0
0
0
0
0
0
0
0
0
0
0
0
0
0
0
0
0
0
0
0
0
0
0
0
0
0
0
0
0
0
0
0
0
0
0
0
5.79707587e-06
5.929032106e-06
2.976882262e-06
9.856158781e-07
2.667605224e-07
6.164364973e-08
1.117049525e-08
2.257094947e-09
3.494971438e-10
3.687203978e-10
4.546612627e-10
8.724377261e-10
4.222573774e-10
0
0
0
0
0
0
0
0
0
0
0
0
0
0
0
0
0
0
0
0
0
0
0
0
0
0
0
0
0
0
0
0
0
0
0
0
0
0
0
0
0
0
0
0
0
0
0
2.625025097e-06
1.900338855e-06
8.919355764e-07
3.258352757e-07
1.004961898e-07
2.781369674e-08
7.794756179e-09
1.608507574e-09
4.290322538e-10
6.11115167e-11
2.376058169e-10
5.548182811e-10
9.332721396e-10
4.713892468e-10
2.17257351e-11
0
0
0
0
0
0
0
0
0
0
0
0
0
0
0
0
0
0
0
0
0
0
0
0
0
0
0
0
0
0
0
0
0
0
0
0
0
0
0
0
0
0
0
0
0
8.856931855e-07
5.759399126e-07
2.832340195e-07
1.138284817e-07
3.886233183e-08
1.108948337e-08
3.483580737e-09
1.241051256e-09
4.898116417e-10
1.90272191e-10
2.239661076e-10
2.99202302e-10
5.272360572e-10
1.084175484e-09
5.897857435e-10
7.700984513e-11
0
0
0
0
0
0
0
0
0
0
0
0
0
0
0
0
0
0
0
0
0
0
0
0
0
0
0
0
0
0
0
0
0
0
0
0
0
0
0
0
0
0
0
0
3.078625311e-07
1.89209084e-07
9.308692151e-08
4.062121524e-08
1.556473908e-08
6.02118047e-09
2.445573923e-09
8.521749248e-10
3.560957562e-10
2.098587516e-10
1.961045538e-10
3.507623907e-10
5.940595847e-10
9.553044635e-10
1.174756466e-09
4.221960219e-10
0
0
0
0
0
0
0
0
0
0
0
0
0
0
0
0
0
0
0
0
0
0
0
0
0
0
0
0
0
0
0
0
0
0
0
0
0
0
0
0
0
0
0
0
1.07943949e-07
6.586337913e-08
3.529560607e-08
1.752111355e-08
7.348404227e-09
2.882218263e-09
1.283628278e-09
4.460870492e-10
1.454628852e-10
2.607583744e-10
1.931672926e-10
2.310007391e-10
4.82477111e-10
8.792903042e-10
1.334859706e-09
1.274383254e-09
3.743693668e-10
0
0
0
0
0
0
0
0
0
0
0
0
0
0
0
0
0
0
0
0
0
0
0
0
0
0
0
0
0
0
0
0
0
0
0
0
0
0
0
0
0
0
0
4.192160296e-08
2.558066933e-08
1.413490787e-08
6.36318576e-09
3.364212875e-09
1.059916429e-09
6.442306605e-10
2.250139211e-10
1.281366788e-10
3.143259269e-10
4.324252772e-10
3.473629125e-10
2.009712614e-10
4.872405524e-10
8.566673018e-10
1.655288042e-09
1.69500483e-09
5.433400743e-10
0
0
0
0
0
0
0
0
0
0
0
0
0
0
0
0
0
0
0
0
0
0
0
0
0
0
0
0
0
0
0
0
0
0
0
0
0
0
0
0
0
0
1.702072517e-08
1.092815694e-08
6.092476104e-09
3.386846905e-09
1.666224541e-09
8.156655796e-10
5.025281297e-10
3.068693114e-10
2.00410415e-10
3.916930735e-10
4.813140943e-10
5.056565343e-10
2.294979106e-10
4.95031588e-10
6.398863448e-10
8.832863603e-10
1.742626707e-09
1.730484207e-09
4.693692965e-10
0
0
0
0
0
0
0
0
0
0
0
0
0
0
0
0
0
0
0
0
0
0
0
0
0
0
0
0
0
0
0
0
0
0
0
0
0
0
0
0
0
6.563980004e-09
4.098853813e-09
2.581326011e-09
1.469012421e-09
7.269658433e-10
5.261345864e-10
4.002986692e-10
3.074410179e-10
1.17066733e-10
0
4.54534437e-10
6.1401985e-10
5.991820453e-10
2.781609906e-10
9.119148051e-10
1.35404612e-09
1.952948736e-09
1.917063769e-09
8.171191794e-10
8.352354056e-11
0
0
0
0
0
0
0
0
0
0
0
0
0
0
0
0
0
0
0
0
0
0
0
0
0
0
0
0
0
0
0
0
0
0
0
0
0
0
0
0
2.629974882e-09
1.896164244e-09
1.25596416e-09
6.903815687e-10
5.289983478e-10
4.376418067e-10
3.940779133e-10
3.717870335e-10
2.894258847e-10
0
4.668088975e-10
7.01932109e-10
8.47485812e-10
7.889154406e-10
4.776617499e-10
7.19099963e-10
8.919035986e-10
1.639012872e-09
1.720894825e-09
6.598597005e-10
0
0
0
0
0
0
0
0
0
0
0
0
0
0
0
0
0
0
0
0
0
0
0
0
0
0
0
0
0
0
0
0
0
0
0
0
0
0
0
0
1.320009192e-09
9.632636042e-10
6.682912998e-10
4.617455176e-10
4.457689923e-10
4.340219098e-10
4.527073544e-10
4.969655092e-10
5.575423614e-10
6.16662236e-10
6.986515622e-10
8.162440427e-10
8.095650188e-10
7.035947763e-10
2.625325598e-10
5.784594962e-10
5.854034792e-10
8.735153939e-10
1.74370359e-09
1.827946035e-09
6.248135167e-10
0
0
0
0
0
0
0
0
0
0
0
0
0
0
0
0
0
0
0
0
0
0
0
0
0
0
0
0
0
0
0
0
0
0
0
0
0
0
0
6.860957588e-10
5.800466688e-10
4.712560955e-10
4.597250739e-10
4.644567051e-10
4.922948324e-10
5.415442874e-10
6.038569642e-10
6.761559862e-10
7.451954616e-10
7.662145003e-10
8.012648192e-10
8.10449349e-10
7.881865005e-10
0
4.104738606e-10
5.960181516e-10
7.270857732e-10
1.727869462e-09
2.014886831e-09
1.006132879e-09
2.16708884e-10
0
0
0
0
0
0
0
0
0
0
0
0
0
0
0
0
0
0
0
0
0
0
0
0
0
0
0
0
0
0
0
0
0
0
0
0
0
0
5.075615952e-10
4.854786237e-10
4.814474525e-10
5.005459918e-10
5.390106809e-10
5.895529568e-10
6.514590301e-10
7.153058528e-10
7.79962955e-10
8.269142506e-10
8.472234566e-10
8.30973521e-10
8.254767819e-10
7.944812343e-10
6.572164079e-10
2.428417166e-10
5.5903721e-10
6.052561592e-10
9.089140951e-10
1.843577756e-09
1.984330948e-09
8.64713396e-10
1.044459983e-10
0
0
0
0
0
0
0
0
0
0
0
0
0
0
0
0
0
0
0
0
0
0
0
0
0
0
0
0
0
0
0
0
0
0
0
0
0
4.916790304e-10
5.155888787e-10
5.560990938e-10
6.066657105e-10
6.667049217e-10
7.286806951e-10
7.877455704e-10
8.442099331e-10
8.88225642e-10
9.177729305e-10
9.268938669e-10
9.032274801e-10
9.04888011e-10
8.969149313e-10
8.982448953e-10
1.804250481e-10
1.004072255e-09
1.278544096e-09
1.691201853e-09
2.511999523e-09
2.782620316e-09
2.252405128e-09
7.705434953e-10
0
0
0
0
0
0
0
0
0
0
0
0
0
0
0
0
0
0
0
0
0
0
0
0
0
0
0
0
0
0
0
0
0
0
0
0
0
5.677316502e-10
6.260674322e-10
6.924643045e-10
7.706420076e-10
8.333554872e-10
8.944800991e-10
9.57710182e-10
9.828060952e-10
1.00219482e-09
1.009937133e-09
1.00280619e-09
9.866206922e-10
9.70509958e-10
9.709804394e-10
1.013834743e-09
1.035219817e-09
8.230630978e-10
1.212548632e-09
1.307727436e-09
1.401337827e-09
2.392398161e-09
2.444688566e-09
1.195590242e-09
2.93588002e-10
0
0
0
0
0
0
0
0
0
0
0
0
0
0
0
0
0
0
0
0
0
0
0
0
0
0
0
0
0
0
0
0
0
0
0
0
6.698163358e-10
7.418449704e-10
8.218951711e-10
9.063619667e-10
9.724532444e-10
1.033374922e-09
1.069066317e-09
1.073513371e-09
1.081882598e-09
1.053568551e-09
1.019039934e-09
9.942525704e-10
9.581923539e-10
9.511533122e-10
9.702354641e-10
1.003503233e-09
3.208652735e-10
1.131188254e-09
1.359523232e-09
1.658027322e-09
2.354127633e-09
2.670572267e-09
2.272742799e-09
9.299928836e-10
1.297013981e-10
0
0
0
0
0
0
0
0
0
0
0
0
0
0
0
0
0
0
0
0
0
0
0
0
0
0
0
0
0
0
0
0
0
0
0
7.563082936e-10
8.289301891e-10
9.148361229e-10
9.751500488e-10
1.021447829e-09
1.059867896e-09
1.073012763e-09
1.058945906e-09
1.054165136e-09
1.01334193e-09
9.793553327e-10
9.275949017e-10
8.733126367e-10
8.658223087e-10
8.515360839e-10
8.679271565e-10
1.854946716e-10
9.535326142e-10
1.119236e-09
1.294168328e-09
1.591204494e-09
2.400861056e-09
2.458012692e-09
1.333998433e-09
4.335466481e-10
0
0
0
0
0
0
0
0
0
0
0
0
0
0
0
0
0
0
0
0
0
0
0
0
0
0
0
0
0
0
0
0
0
0
0
7.558230445e-10
8.136637765e-10
8.82964779e-10
9.224363367e-10
9.477853553e-10
9.666204999e-10
9.638349578e-10
9.391976123e-10
9.298989718e-10
8.926250799e-10
8.68439156e-10
8.103827625e-10
7.541852755e-10
7.563327259e-10
7.536529188e-10
8.076774106e-10
8.827604122e-10
8.724591779e-10
1.021500522e-09
1.160470188e-09
1.323887262e-09
1.548711122e-09
2.397667489e-09
2.242888728e-09
1.020292243e-09
2.210044721e-10
0
0
0
0
0
0
0
0
0
0
0
0
0
0
0
0
0
0
0
0
0
0
0
0
0
0
0
0
0
0
0
0
0
0
6.703299007e-10
7.316234484e-10
7.749113812e-10
7.9911057e-10
8.238283878e-10
8.188366629e-10
8.102375637e-10
7.968274581e-10
7.670523686e-10
7.253003508e-10
7.062902811e-10
6.576013953e-10
6.198903277e-10
6.063753182e-10
6.183732066e-10
6.751952502e-10
7.257143304e-10
5.861284112e-11
8.20391432e-10
9.722408754e-10
1.139388408e-09
1.2943671e-09
2.383271779e-09
2.63390756e-09
1.853285307e-09
6.736586454e-10
1.2727101e-11
0
0
0
0
0
0
0
0
0
0
0
0
0
0
0
0
0
0
0
0
0
0
0
0
0
0
0
0
0
0
0
0
0
5.245354228e-10
5.626013874e-10
5.883602502e-10
5.992710754e-10
6.172732769e-10
6.091196012e-10
6.031739789e-10
5.940047087e-10
5.690086117e-10
5.350048159e-10
5.289531233e-10
4.983698552e-10
4.815224726e-10
4.83155833e-10
5.194013917e-10
5.580169e-10
5.786099259e-10
0
7.18449811e-10
8.733295343e-10
1.044629944e-09
1.227470513e-09
1.447968521e-09
2.45799079e-09
2.393169842e-09
1.173699738e-09
3.14975124e-10
0
0
0
0
0
0
0
0
0
0
0
0
0
0
0
0
0
0
0
0
0
0
0
0
0
0
0
0
0
0
0
0
0
3.439497509e-10
3.626587714e-10
3.744031878e-10
3.96824569e-10
4.012146811e-10
3.911119868e-10
3.933016012e-10
3.88801376e-10
3.753385503e-10
3.544081392e-10
3.661851386e-10
3.567090467e-10
3.63987235e-10
3.914897856e-10
4.555146573e-10
5.201425752e-10
6.055311023e-10
7.136165999e-10
7.781400638e-10
8.644486809e-10
9.919259193e-10
1.167062261e-09
1.351548098e-09
2.521471378e-09
2.900499508e-09
2.381812068e-09
9.369418084e-10
1.339903194e-10
0
0
0
0
0
0
0
0
0
0
0
0
0
0
0
0
0
0
0
0
0
0
0
0
0
0
0
0
0
0
0
0
1.668287691e-10
1.745456248e-10
1.765068314e-10
1.932320489e-10
1.924141678e-10
1.937979391e-10
2.069873615e-10
2.118873091e-10
2.117367364e-10
2.050447265e-10
2.334435263e-10
2.466409949e-10
2.780782827e-10
3.295544307e-10
4.158522148e-10
5.001885482e-10
6.058432724e-10
7.298067073e-10
7.246029865e-10
8.614886148e-10
9.843960711e-10
1.158113995e-09
1.382288911e-09
1.77949831e-09
2.677787455e-09
2.594530341e-09
1.336012329e-09
4.142941309e-10
0
0
0
0
0
0
0
0
0
0
0
0
0
0
0
0
0
0
0
0
0
0
0
0
0
0
0
0
0
0
0
0
4.544222315e-11
4.427276938e-11
5.950558356e-11
6.279723085e-11
5.189979597e-11
5.468499067e-11
6.236784255e-11
7.763210763e-11
9.21533105e-11
9.961152368e-11
1.425927987e-10
1.780059475e-10
2.298965976e-10
2.968335092e-10
3.895468569e-10
4.696625791e-10
5.563785573e-10
6.087190901e-10
4.828405106e-12
7.833030245e-10
9.287329015e-10
1.083400135e-09
1.282784479e-09
1.498178564e-09
2.689326951e-09
3.06677324e-09
2.530269051e-09
1.066928654e-09
2.11967251e-10
0
0
0
0
0
0
0
0
0
0
0
0
0
0
0
0
0
0
0
0
0
0
0
0
0
0
0
0
0
0
0
0
8.682207763e-12
9.870972733e-12
2.472658595e-12
2.78082371e-13
5.051185961e-12
1.239492163e-11
2.158399903e-11
3.685371543e-11
4.961073275e-11
1.042134418e-10
1.576956099e-10
2.342137254e-10
3.420984162e-10
4.312265773e-10
5.293529432e-10
6.156706314e-10
7.122319715e-10
8.249088263e-10
8.823994976e-10
9.411968232e-10
1.016726796e-09
1.115942513e-09
1.209200225e-09
2.326103841e-09
2.960955707e-09
2.783934717e-09
1.476372756e-09
4.985078624e-10
0
0
0
0
0
0
0
0
0
0
0
0
0
0
0
0
0
0
0
0
0
0
0
0
0
0
0
0
0
0
0
7.410792236e-13
1.769862563e-12
1.210806576e-12
0
0
0
1.93320488e-12
3.35224596e-12
1.202294519e-11
2.935818055e-11
9.220498395e-11
1.613628083e-10
2.559358286e-10
3.818390459e-10
4.799966518e-10
5.881137427e-10
6.870145141e-10
7.983166914e-10
9.318798997e-10
9.786479064e-10
1.027477587e-09
1.087745007e-09
1.18158604e-09
1.33460125e-09
1.650821738e-09
2.85716801e-09
3.192974515e-09
2.602876029e-09
1.11324468e-09
2.373079496e-10
0
0
0
0
0
0
0
0
0
0
0
0
0
0
0
0
0
0
0
0
0
0
0
0
0
0
0
0
0
0
2.971345314e-13
3.894626347e-13
0
0
0
1.471919505e-14
0
0
4.84311701e-12
2.714440639e-11
9.348937369e-11
1.687571253e-10
2.691505725e-10
3.938643861e-10
4.859316354e-10
6.09344285e-10
7.204049578e-10
8.368807455e-10
9.676595723e-10
1.034236781e-09
1.096394156e-09
1.152291556e-09
1.231770145e-09
1.36563614e-09
1.537913871e-09
2.727427445e-09
3.258815783e-09
2.93709779e-09
1.535322322e-09
5.231633795e-10
6.691953849e-14
0
0
0
0
0
0
0
0
0
0
0
0
0
0
0
0
0
0
0
0
0
0
0
0
0
0
0
0
0
3.877341283e-13
0
0
0
0
1.237293228e-12
0
0
5.432201666e-12
3.704243512e-11
1.050641342e-10
1.807807927e-10
2.806887205e-10
4.038300961e-10
4.919038619e-10
6.100172818e-10
7.111882311e-10
8.09448424e-10
8.956539448e-10
9.334342736e-10
1.075152591e-09
1.160045837e-09
1.26517537e-09
1.409516786e-09
1.569700969e-09
1.85540579e-09
2.96041891e-09
3.087411499e-09
2.151543211e-09
9.328622132e-10
1.859319875e-10
0
0
0
0
0
0
0
0
0
0
0
0
0
0
0
0
0
0
0
0
0
0
0
0
0
0
0
0
0
0
0
0
0
0
0
0
0
3.565662707e-12
5.37329439e-11
1.231198742e-10
2.026369761e-10
3.087148576e-10
4.28504987e-10
5.165895551e-10
6.369358723e-10
7.427426159e-10
8.460932824e-10
9.447276385e-10
1.049688672e-09
1.126371254e-09
1.197110999e-09
1.275623597e-09
1.382199632e-09
1.526641432e-09
1.749876255e-09
2.950370051e-09
3.387541072e-09
2.92791535e-09
1.493544672e-09
4.992035152e-10
3.503968157e-14
0
0
0
0
0
0
0
0
0
0
0
0
0
0
0
0
0
0
0
0
0
0
0
0
0
0
0
0
0
0
0
0
0
0
4.814755215e-13
8.86351351e-12
2.950746911e-11
1.002914637e-10
1.580673219e-10
2.329188075e-10
3.416515189e-10
4.58164993e-10
5.465939526e-10
6.701809175e-10
7.819493079e-10
8.91926304e-10
1.001675368e-09
1.131291754e-09
1.188696538e-09
1.248948244e-09
1.31054769e-09
1.407428139e-09
1.55571711e-09
1.721411886e-09
1.984142341e-09
3.025618514e-09
3.010732991e-09
1.818591248e-09
8.087071416e-10
1.522357127e-10
0
0
0
0
0
0
0
0
0
0
0
0
0
0
0
0
0
0
0
0
0
0
0
0
0
0
0
0
0
0
0
0
0
0
1.842946076e-12
1.237287466e-11
3.755016556e-11
9.428926322e-11
1.664325735e-10
2.508732304e-10
3.679444701e-10
4.820358956e-10
5.693887324e-10
6.914535235e-10
8.013088864e-10