/*--------------------------------*- C++ -*----------------------------------*\
  =========                 |
  \\      /  F ield         | OpenFOAM: The Open Source CFD Toolbox
   \\    /   O peration     | Website:  https://openfoam.org
    \\  /    A nd           | Version:  10
     \\/     M anipulation  |
\*---------------------------------------------------------------------------*/
FoamFile
{
    format      ascii;
    class       volScalarField;
    location    "0.0250188088";
    object      CH3O;
}
// * * * * * * * * * * * * * * * * * * * * * * * * * * * * * * * * * * * * * //

dimensions      [0 0 0 0 0 0 0];

internalField   nonuniform List<scalar> 
5170
(
0
0
0
0
0
0
0
0
0
0
0
0
0
0
0
0
0
0
0
0
0
0
0
0
0
0
0
0
0
0
0
0
0
0
0
0
0
0
0
0
0
0
0
0
0
0
0
0
0
0
0
0
0
0
0
0
0
0
0
0
0
0
0
0
0
0
0
0
0
0
0
0
0
0
0
0
0
0
0
0
0
0
0
0
0
0
0
0
0
0
0
0
0
0
0
0
0
0
0
7.65611464e-09
8.397558804e-20
4.380991114e-20
3.959639561e-20
3.858700977e-20
3.871444429e-20
3.697627439e-20
1.55306127e-20
1.011780596e-20
4.192887799e-21
1.061748928e-20
6.78245327e-21
9.132386904e-21
6.665748469e-21
0
2.131072843e-21
2.025735595e-21
3.525717118e-21
3.381384617e-21
4.422480127e-22
0
1.919102536e-20
0
0
1.867489403e-19
1.645845811e-18
0
6.363735907e-18
3.661193568e-18
7.278706874e-18
0
3.072021715e-17
8.536804274e-19
0
7.609427329e-18
4.92973253e-16
4.842093067e-16
6.486657422e-18
8.612233778e-18
4.270417236e-16
0
0
4.293795975e-16
9.134829812e-16
2.891310716e-15
0
0
0
4.377267576e-15
0
0
0
0
1.603567383e-15
0
0
0
0
0
0
0
0
0
0
0
0
0
0
0
0
0
0
0
0
0
0
0
0
0
0
0
0
0
0
0
0
0
0
0
0
0
5.757686205e-11
8.628521893e-15
0
0
0
1.03136009e-08
5.41138353e-10
1.016636729e-10
9.158939225e-12
2.311315121e-13
0
0
3.640740364e-08
6.383712174e-07
9.502195194e-06
0
4.01721128e-09
1.43322982e-07
1.599229184e-06
1.315327251e-05
0
1.795480688e-08
2.861675245e-07
2.448037978e-06
1.182473555e-05
0
4.213542144e-08
4.298667854e-07
2.960688647e-06
9.107189546e-06
5.19178725e-09
8.212230277e-08
6.2892513e-07
3.139430898e-06
6.708162527e-06
1.707116825e-08
1.379034321e-07
7.969718288e-07
3.065818231e-06
5.04363862e-06
3.764845597e-08
2.109860719e-07
9.547013696e-07
2.880787618e-06
3.994368226e-06
6.497051289e-08
2.751014347e-07
1.090097822e-06
2.644181372e-06
3.225927843e-06
9.741113129e-08
3.118544667e-07
1.192320289e-06
2.385819618e-06
2.620725536e-06
1.455170375e-07
4.092058759e-07
1.251109381e-06
2.101776456e-06
2.068998484e-06
2.14919964e-07
5.244573006e-07
1.271930142e-06
1.845382515e-06
1.672242725e-06
2.847624442e-07
6.384601852e-07
1.256784969e-06
1.614030211e-06
1.356469459e-06
3.939722391e-07
7.377566396e-07
1.203768663e-06
1.380290143e-06
1.066277072e-06
5.21245615e-07
8.071236414e-07
1.12295279e-06
1.164092511e-06
8.430693758e-07
6.440629516e-07
8.398283205e-07
1.020868559e-06
9.658274798e-07
6.671811477e-07
7.198029875e-07
8.290366161e-07
8.971265361e-07
7.770611448e-07
5.15584813e-07
7.279000547e-07
7.730362565e-07
7.619871928e-07
6.128115939e-07
4.045758381e-07
6.737537956e-07
6.744081296e-07
6.146872997e-07
4.638826358e-07
3.004255057e-07
5.638699169e-07
5.437339756e-07
4.747430311e-07
3.555816117e-07
2.490290828e-07
4.326418378e-07
4.086765999e-07
3.504368844e-07
2.736946106e-07
2.10562098e-07
3.043140164e-07
2.884851836e-07
2.562685736e-07
2.199123739e-07
1.94722601e-07
2.360468326e-07
2.326787037e-07
2.272658923e-07
2.250419854e-07
2.33028534e-07
2.429115087e-07
2.478632456e-07
2.600333213e-07
2.819376471e-07
3.178247694e-07
2.712071989e-07
2.787097028e-07
2.957990259e-07
3.233249763e-07
3.631942637e-07
2.628062639e-07
2.67952645e-07
2.791379456e-07
2.958909568e-07
3.176590363e-07
1.954582444e-07
1.969167204e-07
1.996405962e-07
2.031534941e-07
2.068897306e-07
1.139669012e-07
1.138255032e-07
1.132245241e-07
1.119241747e-07
1.098756063e-07
5.598482005e-08
5.56225986e-08
5.46848278e-08
5.315879747e-08
5.106124138e-08
2.468341355e-08
2.446369031e-08
2.392814297e-08
2.30656879e-08
2.190612657e-08
1.024369589e-08
1.016014088e-08
9.947046849e-09
9.559074579e-09
9.028247208e-09
3.92415002e-09
3.898283813e-09
3.835647899e-09
3.731798911e-09
3.578602695e-09
1.707932644e-09
1.693670118e-09
1.660474297e-09
1.609883348e-09
1.542663592e-09
8.13717782e-10
8.078406515e-10
7.949060562e-10
7.769396104e-10
7.550519866e-10
5.002791283e-10
4.991590912e-10
4.966830337e-10
4.934003123e-10
4.899101778e-10
4.201613583e-10
4.208292832e-10
4.222910384e-10
4.251779672e-10
4.295056133e-10
4.268730405e-10
4.290981128e-10
4.340928536e-10
4.417420344e-10
4.51931433e-10
4.525115452e-10
4.556096256e-10
4.62491361e-10
4.729197754e-10
4.8669206e-10
4.42628662e-10
4.465486252e-10
4.552281779e-10
4.684731463e-10
4.861017779e-10
3.905516264e-10
3.948861839e-10
4.04376103e-10
4.187055876e-10
4.376445666e-10
2.870384646e-10
2.905900632e-10
2.982169329e-10
3.095172917e-10
3.244882985e-10
1.600878659e-10
1.625489068e-10
1.678173441e-10
1.756458214e-10
1.859739515e-10
4.587183137e-11
4.773064212e-11
5.173900325e-11
5.781447508e-11
6.624004085e-11
1.473074912e-11
1.775273191e-11
1.990319831e-11
2.229510408e-11
2.505192522e-11
1.161137798e-13
2.048182714e-13
2.948421177e-13
4.135937805e-13
5.595728921e-13
0
0
0
0
0
0
0
0
0
0
0
0
0
0
0
2.669598866e-12
2.624722802e-12
2.542566179e-12
2.435110637e-12
2.322042756e-12
3.665730327e-12
3.595925692e-12
3.43963171e-12
3.195731284e-12
2.88029348e-12
1.337134795e-12
1.311616095e-12
1.236462786e-12
1.070127306e-12
8.712406962e-13
0
0
0
0
0
2.35445419e-11
2.306145928e-11
2.206696315e-11
2.065922303e-11
1.894437653e-11
5.192921791e-11
5.096911843e-11
4.89585351e-11
4.606678963e-11
4.246156973e-11
7.327400059e-11
7.195697672e-11
6.914249925e-11
6.507381082e-11
5.98803746e-11
8.385668707e-11
8.230276804e-11
7.900096524e-11
7.418315445e-11
6.803181474e-11
9.616004053e-11
9.433188095e-11
9.043494477e-11
8.465968338e-11
7.742692209e-11
1.204806643e-10
1.182866809e-10
1.136441819e-10
1.069140819e-10
9.839457698e-11
1.769804589e-10
1.742045475e-10
1.683216091e-10
1.597581645e-10
1.488386632e-10
2.708925113e-10
2.671612201e-10
2.59224656e-10
2.475922149e-10
2.325910623e-10
3.941498948e-10
3.890337181e-10
3.7813212e-10
3.621261689e-10
3.415281934e-10
5.465972321e-10
5.403686486e-10
5.270753125e-10
5.074754349e-10
4.821050812e-10
7.26633021e-10
7.191279642e-10
7.031108844e-10
6.795187039e-10
6.489717136e-10
8.713287335e-10
8.647273137e-10
8.508260862e-10
8.307396582e-10
8.051005662e-10
1.029297526e-09
1.02099241e-09
1.003237175e-09
9.770069547e-10
9.428782266e-10
1.265134507e-09
1.2551926e-09
1.233914887e-09
1.20243596e-09
1.161440763e-09
1.595090957e-09
1.582682928e-09
1.556118094e-09
1.516820575e-09
1.465881868e-09
1.942984634e-09
1.926674269e-09
1.891759794e-09
1.840143124e-09
1.773057366e-09
2.135833063e-09
2.119395655e-09
2.084242697e-09
2.032284136e-09
1.964263148e-09
2.352785733e-09
2.34065112e-09
2.315089485e-09
2.27808781e-09
2.230607615e-09
2.833272661e-09
2.827810683e-09
2.816828757e-09
2.801756914e-09
2.783323363e-09
1.381749298e-05
1.354025216e-05
1.025309199e-05
7.233724273e-06
5.11211902e-06
3.78310476e-06
2.991917062e-06
2.388560765e-06
1.921115393e-06
1.476217717e-06
1.199966544e-06
9.710286976e-07
7.4881866e-07
5.997220839e-07
4.827822852e-07
3.771040732e-07
3.00264386e-07
2.363409288e-07
2.068011369e-07
1.900632648e-07
1.924206609e-07
2.49380586e-07
3.535659567e-07
3.985105724e-07
3.353810458e-07
2.097416302e-07
1.08416962e-07
4.960338812e-08
2.106644306e-08
8.667155612e-09
3.463060718e-09
1.494902705e-09
7.408568148e-10
4.88318691e-10
4.330239531e-10
4.597362867e-10
4.974164458e-10
5.002504245e-10
4.520662544e-10
3.365372411e-10
1.947779877e-10
7.413560266e-11
2.72882469e-11
5.253117941e-13
0
0
0
2.245205789e-12
2.651355868e-12
5.679412938e-13
0
1.756474451e-11
3.957684269e-11
5.565678947e-11
6.308747648e-11
7.158643518e-11
9.158340316e-11
1.399972055e-10
2.201665206e-10
3.247112353e-10
4.611829377e-10
6.238095325e-10
7.828267821e-10
9.14506971e-10
1.127382017e-09
1.422922152e-09
1.71756251e-09
1.906782956e-09
2.190647312e-09
2.767227332e-09
3.136023294e-06
2.246172011e-07
6.321540569e-09
2.311898604e-10
1.538678484e-11
2.637158521e-06
8.768086109e-07
5.086206007e-08
1.543064104e-09
3.910697615e-10
2.223518495e-06
6.022733336e-07
5.758436521e-08
3.166926895e-09
2.500468503e-09
1.744238794e-06
4.879028006e-07
1.220405577e-07
9.650530767e-09
3.05184097e-09
1.352806384e-06
4.00707477e-07
3.751838345e-07
3.731951116e-08
3.793906778e-09
1.12521885e-06
3.799181162e-07
5.141939572e-07
6.40686395e-08
6.445313943e-09
9.637370093e-07
4.249597487e-07
5.127953615e-07
7.550815876e-08
8.814379749e-09
8.494656858e-07
3.773632607e-07
4.036234334e-07
8.691780484e-08
1.159402459e-08
7.43968823e-07
3.265503652e-07
3.65863599e-07
1.880065882e-07
2.72326116e-08
5.732544055e-07
2.73670427e-07
2.971294864e-07
2.585106003e-07
4.25897151e-08
5.249064564e-07
2.539387936e-07
2.768606393e-07
2.967873416e-07
5.400633112e-08
4.37754977e-07
2.337016348e-07
2.792794478e-07
3.227882571e-07
6.613734888e-08
3.195748496e-07
2.055436222e-07
2.51097934e-07
3.315913193e-07
1.098386004e-07
2.898877108e-07
1.931585147e-07
2.320814933e-07
3.289265221e-07
1.559449459e-07
2.484079253e-07
1.72221397e-07
2.179389407e-07
3.184983888e-07
1.825861391e-07
2.0976764e-07
1.512876437e-07
2.072069375e-07
3.063054991e-07
2.064920042e-07
1.754307054e-07
1.356715853e-07
1.994632365e-07
2.975128407e-07
2.266199792e-07
1.589834068e-07
1.477042046e-07
2.107298343e-07
3.103957312e-07
2.344112479e-07
1.568993217e-07
1.697681183e-07
2.555156345e-07
3.637472038e-07
2.334605065e-07
1.704547352e-07
2.305049982e-07
4.079417717e-07
6.248985729e-07
2.773639041e-07
1.959366329e-07
2.923068884e-07
5.686652348e-07
1.22444692e-06
2.426691157e-06
2.75503707e-07
4.110183518e-07
7.516813876e-07
1.545748074e-06
3.198212324e-06
4.072018168e-07
5.753657586e-07
8.896513412e-07
1.424964413e-06
2.193225738e-06
4.528724013e-07
5.73862905e-07
7.310962805e-07
8.981661736e-07
1.007453433e-06
3.64753142e-07
4.10275643e-07
4.429935079e-07
4.469267862e-07
4.103215353e-07
2.171645519e-07
2.199844265e-07
2.106135404e-07
1.882207265e-07
1.553538262e-07
1.083243632e-07
1.028610632e-07
9.20521956e-08
7.754603925e-08
6.131772185e-08
4.851845375e-08
4.444505355e-08
3.85377526e-08
3.126287181e-08
2.404846419e-08
2.026113114e-08
1.846592549e-08
1.583048981e-08
1.272434887e-08
9.349617401e-09
8.292521527e-09
7.273422535e-09
6.156276085e-09
5.152929386e-09
3.938848978e-09
3.340955658e-09
2.970208466e-09
2.490878977e-09
2.155087707e-09
1.759295025e-09
1.44705594e-09
1.323554932e-09
1.132977055e-09
9.79381056e-10
8.527514941e-10
7.280094883e-10
6.886629794e-10
6.448396818e-10
5.910903464e-10
5.412983992e-10
4.878081338e-10
4.776115561e-10
4.680952066e-10
4.646958962e-10
4.751790164e-10
4.369433171e-10
4.479216524e-10
4.648816301e-10
4.895880769e-10
5.200823696e-10
4.690988832e-10
4.918538262e-10
5.226598046e-10
5.612989158e-10
6.066073606e-10
5.115573768e-10
5.422881119e-10
5.826833624e-10
6.320497294e-10
6.91057603e-10
5.205665794e-10
5.61223369e-10
6.120033883e-10
6.605549864e-10
7.059429954e-10
4.736990146e-10
5.128165192e-10
5.535296999e-10
5.926560287e-10
6.292769768e-10
3.558018789e-10
3.868300911e-10
4.177914415e-10
4.482681754e-10
4.811514561e-10
2.098119368e-10
2.354616837e-10
2.636080224e-10
2.968671578e-10
3.231227934e-10
8.80447309e-11
1.152720259e-10
1.355167489e-10
1.500304398e-10
1.60702552e-10
3.142296015e-11
3.71865577e-11
4.176608451e-11
4.384637915e-11
4.533362512e-11
3.258977085e-13
4.393081877e-13
4.663324835e-13
8.741688704e-13
6.760124687e-13
0
0
0
0
0
0
0
0
0
0
0
0
0
1.046845063e-13
5.722703056e-13
2.055404427e-12
2.004872034e-12
1.74232997e-12
1.144762777e-12
3.052009467e-13
2.271907645e-12
1.623708223e-12
8.208245986e-13
0
0
1.442822971e-13
0
0
0
0
0
0
0
0
0
1.478488451e-11
1.092693687e-11
7.483390171e-12
4.539390381e-12
2.147204801e-12
3.438898339e-11
2.65297636e-11
1.894968731e-11
1.181047725e-11
6.06137919e-12
4.836868345e-11
3.723937395e-11
2.632424319e-11
1.666823593e-11
8.772599703e-12
5.504532838e-11
4.217451595e-11
2.96765395e-11
1.832239927e-11
9.130579115e-12
6.197590944e-11
4.693995021e-11
3.283359621e-11
2.053060047e-11
1.067023666e-11
8.036416493e-11
6.269130929e-11
4.585482793e-11
3.071842001e-11
1.804746108e-11
1.252925898e-10
1.017614364e-10
7.86868555e-11
5.691885762e-11
3.705210399e-11
1.995525987e-10
1.660677644e-10
1.322528825e-10
9.882443979e-11
6.800459795e-11
2.965771754e-10
2.506779424e-10
2.043000892e-10
1.595358108e-10
1.174621048e-10
4.261609256e-10
3.684856467e-10
3.1006287e-10
2.530145001e-10
2.001969061e-10
5.819141546e-10
5.132436527e-10
4.450173571e-10
3.803510002e-10
3.194385057e-10
7.442823571e-10
6.724744551e-10
5.821200043e-10
4.94403266e-10
4.113377205e-10
8.668090659e-10
7.85116215e-10
6.977756527e-10
6.076835804e-10
5.173113193e-10
1.07015051e-09
9.729425781e-10
8.695481896e-10
7.615229272e-10
6.51283106e-10
1.350862291e-09
1.22686124e-09
1.092548649e-09
9.479975624e-10
8.000504207e-10
1.625065117e-09
1.467091993e-09
1.296681361e-09
1.119750935e-09
9.383641206e-10
1.81096056e-09
1.644775977e-09
1.485025365e-09
1.333256992e-09
1.193788253e-09
2.123213144e-09
2.017747479e-09
1.920721045e-09
1.839067083e-09
1.780918674e-09
2.736425317e-09
2.707953742e-09
2.698689701e-09
2.699939072e-09
2.699297656e-09
4.030037472e-11
0
0
0
0
0
0
0
0
0
0
0
0
0
0
0
0
0
0
0
0
0
0
0
0
0
0
0
0
0
0
0
0
0
0
0
0
0
0
0
0
0
0
0
0
0
0
0
0
0
0
0
0
0
0
0
0
0
0
0
5.908027792e-10
1.604134264e-09
0
0
0
0
0
0
0
0
0
0
0
0
0
0
0
0
0
0
0
0
0
0
0
0
0
0
0
0
0
0
0
0
0
0
0
0
0
0
0
0
0
0
0
0
0
0
0
0
0
0
0
0
0
0
0
0
0
0
2.77360814e-09
0
0
0
0
0
0
0
0
0
0
0
0
0
0
0
0
0
0
0
0
0
0
0
0
0
0
0
0
0
0
0
0
0
0
0
0
0
0
0
0
0
0
0
0
0
0
0
0
0
0
0
0
0
0
0
0
0
0
0
1.10191096e-08
1.31866132e-09
0
0
0
0
0
0
0
0
0
0
0
0
0
0
0
0
0
0
0
0
0
0
0
0
0
0
0
0
0
0
0
0
0
0
0
0
0
0
0
0
0
0
0
0
0
0
0
0
0
0
0
0
0
0
0
0
0
0
1.186599431e-08
1.077682633e-08
4.473400617e-13
0
0
0
0
0
0
0
0
0
0
0
0
0
0
0
0
0
0
0
0
0
0
0
0
0
0
0
0
0
0
0
0
0
0
0
0
0
0
0
0
0
0
0
0
0
0
0
0
0
0
0
0
0
0
0
0
0
6.806571093e-09
3.186079533e-08
5.749112774e-09
2.195101695e-09
0
0
0
0
0
0
0
0
0
0
0
0
0
0
0
0
0
0
0
0
0
0
0
0
0
0
0
0
0
0
0
0
0
0
0
0
0
0
0
0
0
0
0
0
0
0
0
0
0
0
0
0
0
0
0
0
3.343818109e-09
2.251989242e-08
2.941186143e-08
3.012165719e-09
9.887769969e-10
0
0
0
0
0
0
0
0
0
0
0
0
0
0
0
0
0
0
0
0
0
0
0
0
0
0
0
0
0
0
0
0
0
0
0
0
0
0
0
0
0
0
0
0
0
0
0
0
0
0
0
0
0
0
0
1.877586747e-09
1.07949287e-08
5.346584179e-08
1.848780816e-08
2.989258493e-09
7.30597526e-10
0
0
0
0
0
0
0
0
0
0
0
0
0
0
0
0
0
0
0
0
0
0
0
0
0
0
0
0
0
0
0
0
0
0
0
0
0
0
0
0
0
0
0
0
0
0
0
0
0
0
0
0
0
0
3.030472895e-09
6.030260219e-09
4.674496436e-08
6.22954146e-08
1.154831339e-08
5.555965958e-09
3.122749444e-10
0
0
0
0
0
0
0
0
0
0
0
0
0
0
0
0
0
0
0
0
0
0
0
0
0
0
0
0
0
0
0
0
0
0
0
0
0
0
0
0
0
0
0
0
0
0
0
0
0
0
0
0
0
6.248395774e-09
3.655886676e-09
3.038769804e-08
1.018545947e-07
4.46920096e-08
5.399433569e-09
1.837276575e-09
0
0
0
0
0
0
0
0
0
0
0
0
0
0
0
0
0
0
0
0
0
0
0
0
0
0
0
0
0
0
0
0
0
0
0
0
0
0
0
0
0
0
0
0
0
0
0
0
0
0
0
0
0
8.868024815e-09
8.559724928e-10
1.657390426e-08
1.076810819e-07
1.172740679e-07
2.373185903e-08
8.241246761e-09
7.025621583e-10
0
0
0
0
0
0
0
0
0
0
0
0
0
0
0
0
0
0
0
0
0
0
0
0
0
0
0
0
0
0
0
0
0
0
0
0
0
0
0
0
0
0
0
0
0
0
0
0
0
0
0
0
9.467453086e-09
2.051656306e-09
1.08403193e-08
9.640257642e-08
2.139446616e-07
7.374778099e-08
7.8458281e-09
2.440648481e-09
1.115977654e-10
0
0
0
0
0
0
0
0
0
0
0
0
0
0
0
0
0
0
0
0
0
0
0
0
0
0
0
0
0
0
0
0
0
0
0
0
0
0
0
0
0
0
0
0
0
0
0
0
0
0
0
1.624037106e-08
2.943862036e-09
7.935521334e-09
7.230279872e-08
2.981919507e-07
1.847770635e-07
2.483999229e-08
6.704826859e-09
5.751642024e-10
0
0
0
0
0
0
0
0
0
0
0
0
0
0
0
0
0
0
0
0
0
0
0
0
0
0
0
0
0
0
0
0
0
0
0
0
0
0
0
0
0
0
0
0
0
0
0
0
0
0
0
2.526745727e-08
5.106710967e-09
8.405217908e-09
5.663332542e-08
3.86245278e-07
4.144914919e-07
7.457808268e-08
1.807007706e-08
1.448917812e-09
1.495879476e-11
0
0
0
0
0
0
0
0
0
0
0
0
0
0
0
0
0
0
0
0
0
0
0
0
0
0
0
0
0
0
0
0
0
0
0
0
0
0
0
0
0
0
0
0
0
0
0
0
0
0
3.254156946e-08
7.166681159e-09
8.471914272e-09
6.106998152e-08
5.169889968e-07
8.049570778e-07
1.728316158e-07
2.302308182e-08
3.412514351e-09
1.588622673e-10
0
0
0
0
0
0
0
0
0
0
0
0
0
0
0
0
0
0
0
0
0
0
0
0
0
0
0
0
0
0
0
0
0
0
0
0
0
0
0
0
0
0
0
0
0
0
0
0
0
0
4.011317836e-08
8.314761379e-09
1.324704539e-08
9.119012031e-08
7.995954754e-07
1.377027584e-06
2.937549863e-07
3.391254651e-08
5.177720804e-09
3.142651675e-10
0
0
0
0
0
0
0
0
0
0
0
0
0
0
0
0
0
0
0
0
0
0
0
0
0
0
0
0
0
0
0
0
0
0
0
0
0
0
0
0
0
0
0
0
0
0
0
0
0
0
4.844474561e-08
1.2856798e-08
2.857353429e-08
1.893105839e-07
1.603177006e-06
1.823199566e-06
3.316469396e-07
3.825437496e-08
6.617902464e-09
4.225856431e-10
0
0
0
0
0
0
0
0
0
0
0
0
0
0
0
0
0
0
0
0
0
0
0
0
0
0
0
0
0
0
0
0
0
0
0
0
0
0
0
0
0
0
0
0
0
0
0
0
0
0
5.435466866e-08
3.049183102e-08
1.257918778e-07
8.419755348e-07
3.80634225e-06
1.526862259e-06
2.452485131e-07
2.601492903e-08
4.795646967e-09
4.441955037e-10
0
0
0
0
0
0
0
0
0
0
0
0
0
0
0
0
0
0
0
0
0
0
0
0
0
0
0
0
0
0
0
0
0
0
0
0
0
0
0
0
0
0
0
0
0
0
0
0
0
0
6.854662706e-08
1.084742482e-07
5.479797522e-07
3.807691125e-06
4.082352292e-06
8.413725585e-07
1.206443325e-07
2.250387287e-08
4.515313899e-09
1.217468988e-09
9.621290305e-12
0
0
0
0
0
0
0
0
0
0
0
0
0
0
0
0
0
0
0
0
0
0
0
0
0
0
0
0
0
0
0
0
0
0
0
0
0
0
0
0
0
0
0
0
0
0
0
0
0
2.739079418e-07
9.059528408e-07
4.944490004e-06
7.394214667e-06
2.046205972e-06
3.707928765e-07
5.620943943e-08
1.213616462e-08
3.061195508e-09
1.213202361e-09
4.85763553e-10
0
0
0
0
0
0
0
0
0
0
0
0
0
0
0
0
0
0
0
0
0
0
0
0
0
0
0
0
0
0
0
0
0
0
0
0
0
0
0
0
0
0
0
0
0
0
0
0
0
3.723315945e-06
7.578507142e-06
8.872548142e-06
3.330016773e-06
7.843922427e-07
1.559601868e-07
2.895801637e-08
6.477656328e-09
1.993995992e-09
8.422799677e-10
8.822345441e-10
3.896372463e-10
0
0
0
0
0
0
0
0
0
0
0
0
0
0
0
0
0
0
0
0
0
0
0
0
0
0
0
0
0
0
0
0
0
0
0
0
0
0
0
0
0
0
0
0
0
0
0
0
5.984090516e-06
6.680505903e-06
3.407134179e-06
1.089851556e-06
2.840454459e-07
6.469156522e-08
1.126228743e-08
2.342352841e-09
5.023394442e-10
3.76578454e-10
4.809712885e-10
8.719520834e-10
4.156295566e-10
0
0
0
0
0
0
0
0
0
0
0
0
0
0
0
0
0
0
0
0
0
0
0
0
0
0
0
0
0
0
0
0
0
0
0
0
0
0
0
0
0
0
0
0
0
0
0
2.88773667e-06
2.14306551e-06
9.873079033e-07
3.491078554e-07
1.056880838e-07
2.889385929e-08
8.144437875e-09
1.694601819e-09
4.51236081e-10
7.357415292e-11
2.436409294e-10
5.748926525e-10
9.328961011e-10
4.644589399e-10
1.959122977e-11
0
0
0
0
0
0
0
0
0
0
0
0
0
0
0
0
0
0
0
0
0
0
0
0
0
0
0
0
0
0
0
0
0
0
0
0
0
0
0
0
0
0
0
0
0
9.571793529e-07
6.239388654e-07
3.023209134e-07
1.199551338e-07
4.082184836e-08
1.191168925e-08
3.723776612e-09
1.299886918e-09
5.142555674e-10
1.941274727e-10
2.285748825e-10
3.049318191e-10
5.533902364e-10
1.081197067e-09
5.822486405e-10
7.435907412e-11
0
0
0
0
0
0
0
0
0
0
0
0
0
0
0
0
0
0
0
0
0
0
0
0
0
0
0
0
0
0
0
0
0
0
0
0
0
0
0
0
0
0
0
0
3.24958802e-07
1.999164563e-07
9.773784493e-08
4.261902481e-08
1.633703054e-08
6.338047131e-09
2.556727734e-09
8.975913336e-10
3.674868423e-10
2.250538802e-10
2.769162274e-10
3.582256364e-10
5.959185274e-10
9.686228026e-10
1.173448443e-09
4.189964805e-10
0
0
0
0
0
0
0
0
0
0
0
0
0
0
0
0
0
0
0
0
0
0
0
0
0
0
0
0
0
0
0
0
0
0
0
0
0
0
0
0
0
0
0
0
1.129471657e-07
6.900645038e-08
3.698171873e-08
1.835543152e-08
7.670179765e-09
2.987508307e-09
1.331505527e-09
4.614369504e-10
1.517968434e-10
2.620091866e-10
2.08339654e-10
3.188196943e-10
4.880451287e-10
8.801849578e-10
1.339904705e-09
1.274606172e-09
3.729115462e-10
0
0
0
0
0
0
0
0
0
0
0
0
0
0
0
0
0
0
0
0
0
0
0
0
0
0
0
0
0
0
0
0
0
0
0
0
0
0
0
0
0
0
0
4.368607137e-08
2.67147987e-08
1.46994631e-08
6.585138522e-09
3.473755963e-09
1.073906526e-09
6.533590849e-10
2.260061057e-10
1.264960522e-10
3.138071704e-10
4.274719005e-10
3.534544364e-10
2.420062782e-10
4.924190616e-10
8.413064334e-10
1.655583513e-09
1.690136392e-09
5.412268834e-10
0
0
0
0
0
0
0
0
0
0
0
0
0
0
0
0
0
0
0
0
0
0
0
0
0
0
0
0
0
0
0
0
0
0
0
0
0
0
0
0
0
0
1.769008159e-08
1.138419153e-08
6.363644422e-09
3.51109332e-09
1.723674256e-09
8.476242642e-10
5.118208613e-10
2.851782959e-10
1.914841669e-10
3.744657371e-10
4.735464141e-10
5.020325796e-10
3.218411003e-10
4.908071112e-10
6.427823524e-10
8.730927205e-10
1.74497018e-09
1.727620793e-09
4.680642529e-10
0
0
0
0
0
0
0
0
0
0
0
0
0
0
0
0
0
0
0
0
0
0
0
0
0
0
0
0
0
0
0
0
0
0
0
0
0
0
0
0
0
6.775399601e-09
4.313245033e-09
2.674645808e-09
1.52753116e-09
7.367743581e-10
5.343851645e-10
4.032253417e-10
3.017918947e-10
9.17654717e-11
0
4.357982919e-10
6.013048202e-10
5.950161388e-10
3.886502277e-10
9.087864415e-10
1.351841023e-09
1.954026333e-09
1.916315853e-09
8.159550882e-10
8.298888615e-11
0
0
0
0
0
0
0
0
0
0
0
0
0
0
0
0
0
0
0
0
0
0
0
0
0
0
0
0
0
0
0
0
0
0
0
0
0
0
0
0
2.628419744e-09
1.933778089e-09
1.28985513e-09
7.160660319e-10
5.363010792e-10
4.385262829e-10
3.912342369e-10
3.640322337e-10
2.717651432e-10
0
4.464868027e-10
6.924173739e-10
8.429081859e-10
7.828542354e-10
4.810504261e-10
7.205384677e-10
8.821042939e-10
1.643823903e-09
1.718183212e-09
6.580873062e-10
0
0
0
0
0
0
0
0
0
0
0
0
0
0
0
0
0
0
0
0
0
0
0
0
0
0
0
0
0
0
0
0
0
0
0
0
0
0
0
0
1.339968269e-09
9.834842202e-10
6.75857248e-10
4.242332309e-10
4.412766608e-10
4.310080565e-10
4.486907424e-10
4.903199484e-10
5.473504276e-10
6.060696914e-10
6.869981944e-10
8.113274673e-10
8.024395607e-10
7.024588064e-10
3.652003463e-10
5.759182975e-10
5.925724989e-10
8.747348821e-10
1.747054343e-09
1.824670111e-09
6.233258872e-10
0
0
0
0
0
0
0
0
0
0
0
0
0
0
0
0
0
0
0
0
0
0
0
0
0
0
0
0
0
0
0
0
0
0
0
0
0
0
0
7.013158883e-10
5.790002709e-10
4.700085002e-10
4.5458897e-10
4.602557023e-10
4.871095154e-10
5.35641495e-10
5.975252066e-10
6.697634088e-10
7.401718679e-10
7.565656804e-10
7.942521681e-10
8.044158702e-10
7.551277337e-10
0
3.958141416e-10
5.919912422e-10
7.445537815e-10
1.729721348e-09
2.011871494e-09
1.004163023e-09
2.161243103e-10
0
0
0
0
0
0
0
0
0
0
0
0
0
0
0
0
0
0
0
0
0
0
0
0
0
0
0
0
0
0
0
0
0
0
0
0
0
0
5.09127124e-10
4.845411007e-10
4.780310136e-10
4.955355352e-10
5.328094396e-10
5.826432011e-10
6.442623026e-10
7.082726916e-10
7.728501771e-10
8.193070949e-10
8.405641834e-10
8.250024246e-10
8.204655519e-10
7.869740213e-10
6.475598478e-10
3.412400311e-10
5.576950628e-10
6.117726923e-10
9.128848677e-10
1.84780573e-09
1.981194149e-09
8.630312562e-10
1.040274349e-10
0
0
0
0
0
0
0
0
0
0
0
0
0
0
0
0
0
0
0
0
0
0
0
0
0
0
0
0
0
0
0
0
0
0
0
0
0
4.883770778e-10
5.108855408e-10
5.497264685e-10
5.988914808e-10
6.582046507e-10
7.180515424e-10
7.794064651e-10
8.357852233e-10
8.812016191e-10
9.110587016e-10
9.20409264e-10
8.942579791e-10
8.975993813e-10
8.915336978e-10
8.66095341e-10
0
9.774114062e-10
1.275264122e-09
1.691896125e-09
2.511712299e-09
2.782296082e-09
2.252441893e-09
7.705286169e-10
0
0
0
0
0
0
0
0
0
0
0
0
0
0
0
0
0
0
0
0
0
0
0
0
0
0
0
0
0
0
0
0
0
0
0
0
0
5.620262988e-10
6.193237491e-10
6.850642542e-10
7.619807918e-10
8.235056622e-10
8.851068013e-10
9.469198693e-10
9.744280831e-10
9.95102089e-10
1.003500608e-09
9.976619306e-10
9.820335237e-10
9.646775471e-10
9.679621154e-10
1.007427129e-09
1.022026036e-09
8.24573966e-10
1.207652332e-09
1.308812017e-09
1.394578194e-09
2.394080399e-09
2.443027137e-09
1.194890494e-09
2.9333407e-10
0
0
0
0
0
0
0
0
0
0
0
0
0
0
0
0
0
0
0
0
0
0
0
0
0
0
0
0
0
0
0
0
0
0
0
0
6.634971305e-10
7.3508589e-10
8.144215049e-10
8.988272852e-10
9.641869461e-10
1.025976681e-09
1.062933842e-09
1.066828609e-09
1.076629437e-09
1.048527844e-09
1.016450462e-09
9.902832124e-10
9.539661089e-10
9.488897568e-10
9.670082178e-10
9.748433091e-10
0
1.108806777e-09
1.359418924e-09
1.662419868e-09
2.361462371e-09
2.674021643e-09
2.273148902e-09
9.293314629e-10
1.294547862e-10
0
0
0
0
0
0
0
0
0
0
0
0
0
0
0
0
0
0
0
0
0
0
0
0
0
0
0
0
0
0
0
0
0
0
0
7.508904017e-10
8.233985033e-10
9.089765598e-10
9.694878906e-10
1.014865839e-09
1.054929003e-09
1.06948242e-09
1.054755999e-09
1.050985495e-09
1.010465256e-09
9.757657812e-10
9.252144305e-10
8.715559976e-10
8.642742907e-10
8.50284658e-10
8.398547766e-10
0
9.303077236e-10
1.123603706e-09
1.297662927e-09
1.583004672e-09
2.403692229e-09
2.456968881e-09
1.332241248e-09
4.32882568e-10
0
0
0
0
0
0
0
0
0
0
0
0
0
0
0
0
0
0
0
0
0
0
0
0
0
0
0
0
0
0
0
0
0
0
0
7.526368799e-10
8.106616566e-10
8.798947641e-10
9.197716728e-10
9.443121698e-10
9.647692006e-10
9.632602191e-10
9.377783536e-10
9.291991337e-10
8.915987541e-10
8.652409539e-10
8.089837331e-10
7.52807054e-10
7.551493868e-10
7.535227452e-10
8.051201736e-10
8.759290916e-10
8.753578973e-10
1.02447201e-09
1.159307936e-09
1.324852838e-09
1.53959682e-09
2.397732738e-09
2.241997395e-09
1.019300495e-09
2.206885263e-10
0
0
0
0
0
0
0
0
0
0
0
0
0
0
0
0
0
0
0
0
0
0
0
0
0
0
0
0
0
0
0
0
0
0
6.694662813e-10
7.308498559e-10
7.745746588e-10
7.994009174e-10
8.235471759e-10
8.196377288e-10
8.120568204e-10
7.999710485e-10
7.683263016e-10
7.25799189e-10
7.04244324e-10
6.57424882e-10
6.214569395e-10
6.041229952e-10
6.183043526e-10
6.721691958e-10
7.052466043e-10
4.256506885e-12
8.040519113e-10
9.76367235e-10
1.13859215e-09
1.289056514e-09
2.382831957e-09
2.633074286e-09
1.84918635e-09
6.732518078e-10
1.276538892e-11
0
0
0
0
0
0
0
0
0
0
0
0
0
0
0
0
0
0
0
0
0
0
0
0
0
0
0
0
0
0
0
0
0
5.265130897e-10
5.644344779e-10
5.90310486e-10
6.013829123e-10
6.192291803e-10
6.117995449e-10
6.06321626e-10
5.984722631e-10
5.712255177e-10
5.363319849e-10
5.275277544e-10
4.985065645e-10
4.829504145e-10
4.810137548e-10
5.183815273e-10
5.542722887e-10
5.508203075e-10
0
6.95608329e-10
8.768450538e-10
1.043826228e-09
1.222202577e-09
1.442507259e-09
2.457463993e-09
2.392426083e-09
1.172965939e-09
3.147333971e-10
0
0
0
0
0
0
0
0
0
0
0
0
0
0
0
0
0
0
0
0
0
0
0
0
0
0
0
0
0
0
0
0
0
3.466600822e-10
3.657550752e-10
3.779578851e-10
3.995237563e-10
4.043427328e-10
3.952023275e-10
3.960550011e-10
3.938072786e-10
3.775024816e-10
3.559388288e-10
3.6477145e-10
3.568011137e-10
3.652506074e-10
3.890635603e-10
4.540158702e-10
5.178076797e-10
6.022739635e-10
7.085814795e-10
7.783646272e-10
8.685994809e-10
9.963548809e-10
1.165950164e-09
1.346284857e-09
2.521589841e-09
2.900532768e-09
2.382230827e-09
9.372667587e-10
1.342981147e-10
0
0
0
0
0
0
0
0
0
0
0
0
0
0
0
0
0
0
0
0
0
0
0
0
0
0
0
0
0
0
0
0
1.698769439e-10
1.767729344e-10
1.794920426e-10
1.960418597e-10
1.955183429e-10
1.980191594e-10
2.093043829e-10
2.166598114e-10
2.134773122e-10
2.06269196e-10
2.319536097e-10
2.463971335e-10
2.789166663e-10
3.266768744e-10
4.139032323e-10
4.976278495e-10
6.029001239e-10
7.314165381e-10
7.274579258e-10
8.638443979e-10
9.885399201e-10
1.157678173e-09
1.376040605e-09
1.767198638e-09
2.67865522e-09
2.59475149e-09
1.335675619e-09
4.142046186e-10
0
0
0
0
0
0
0
0
0
0
0
0
0
0
0
0
0
0
0
0
0
0
0
0
0
0
0
0
0
0
0
0
4.720767062e-11
4.667071829e-11
6.102932741e-11
6.431900936e-11
5.438441364e-11
5.693904472e-11
6.245734954e-11
8.074844026e-11
9.310474974e-11
1.002138627e-10
1.411004714e-10
1.770998649e-10
2.299785465e-10
2.932420529e-10
3.870435052e-10
4.672073448e-10
5.513916887e-10
5.862804192e-10
0
7.619672791e-10
9.318622731e-10
1.087795709e-09
1.281720883e-09
1.493204657e-09
2.689745869e-09
3.066757379e-09
2.530472327e-09
1.067115737e-09
2.122619785e-10
0
0
0
0
0
0
0
0
0
0
0
0
0
0
0
0
0
0
0
0
0
0
0
0
0
0
0
0
0
0
0
0
8.724657854e-12
1.005990502e-11
2.778496003e-12
1.323732079e-12
5.578619141e-12
1.544893658e-11
2.260684414e-11
3.690763039e-11
4.970586607e-11
1.023049048e-10
1.564776761e-10
2.344187115e-10
3.374555008e-10
4.288836632e-10
5.27347658e-10
6.118790108e-10
7.080524453e-10
8.20879489e-10
8.819171489e-10
9.446340673e-10
1.020907777e-09
1.115425156e-09
1.207398462e-09
2.333264183e-09
2.96406888e-09
2.78436902e-09
1.476031127e-09
4.984094866e-10
0
0
0
0
0
0
0
0
0
0
0
0
0
0
0
0
0
0
0
0
0
0
0
0
0
0
0
0
0
0
0
5.031013181e-13
1.675521895e-12
1.200295359e-12
0
0
0
3.869354869e-12
3.585750635e-12
1.232913708e-11
3.023586787e-11
9.040003336e-11
1.59939273e-10
2.559495599e-10
3.790972057e-10
4.775797294e-10
5.861387374e-10
6.831134621e-10
7.947631048e-10
9.343706234e-10
9.784319929e-10
1.029971798e-09
1.091054206e-09
1.185361914e-09
1.328166299e-09
1.646523194e-09
2.857690631e-09
3.193307709e-09
2.603646541e-09
1.11387066e-09
2.377625422e-10
0
0
0
0
0
0
0
0
0
0
0
0
0
0
0
0
0
0
0
0
0
0
0
0
0
0
0
0
0
0
1.758635922e-13
2.396952201e-13
0
0
0
7.131197e-13
0
0
3.669571692e-12
2.899692998e-11
9.173290339e-11
1.673281892e-10
2.698266448e-10
3.912293882e-10
4.818434781e-10
6.066260744e-10
7.165297092e-10
8.334516193e-10
9.712807577e-10
1.033823224e-09
1.095906616e-09
1.15536773e-09
1.235695803e-09
1.36467234e-09
1.534131207e-09
2.729863627e-09
3.260273488e-09
2.937582439e-09
1.535274952e-09
5.232009538e-10
0
0
0
0
0
0
0
0
0
0
0
0
0
0
0
0
0
0
0
0
0
0
0
0
0
0
0
0
0
0
2.442595394e-13
0
0
0
0
1.590398115e-12
0
0
3.573586644e-12
3.820264774e-11
1.030681784e-10
1.792622868e-10
2.813873287e-10
4.011286944e-10
4.878107996e-10
6.074001392e-10
7.075465711e-10
8.05596866e-10
8.91253916e-10
9.372359003e-10
1.073891302e-09
1.163474572e-09
1.268804648e-09
1.407814842e-09
1.562558437e-09
1.8505726e-09
2.960631921e-09
3.087527635e-09
2.149679807e-09
9.33081275e-10
1.861897166e-10
0
0
0
0
0
0
0
0
0
0
0
0
0
0
0
0
0
0
0
0
0
0
0
0
0
0
0
0
0
0
0
0
0
0
0
0
0
4.436529921e-12
5.333369596e-11
1.211638639e-10
2.011094599e-10
3.081101324e-10
4.257468213e-10
5.124007869e-10
6.341998418e-10
7.412378482e-10
8.419455991e-10
9.410627794e-10
1.034274376e-09
1.125878845e-09
1.199989789e-09
1.2793291e-09
1.386099558e-09
1.519527957e-09
1.744528401e-09
2.950342557e-09
3.387252522e-09
2.927749952e-09
1.493286263e-09
4.992406629e-10
0
0
0
0
0
0
0
0
0
0
0
0
0
0
0
0
0
0
0
0
0
0
0
0
0
0
0
0
0
0
0
0
0
0
0
2.956907276e-13
8.989602104e-12
3.148900789e-11
9.730857772e-11
1.561250087e-10
2.316851112e-10
3.406927369e-10
4.555113097e-10
5.425017976e-10
6.674739404e-10
7.803658383e-10
8.878076037e-10
9.982507025e-10
1.121473022e-09
1.188380228e-09
1.249003825e-09
1.314115341e-09
1.411318698e-09
1.554021532e-09
1.713862578e-09
1.978564443e-09
3.025197863e-09
3.009990912e-09
1.817362748e-09
8.082424431e-10
1.522907481e-10
0
0
0
0
0
0
0
0
0
0
0
0
0
0
0
0
0
0
0
0
0
0
0
0
0
0
0
0
0
0
0
0
0
0
1.722075115e-12
1.268511338e-11
3.808338709e-11
9.305544096e-11
1.647590927e-10
2.5126627e-10
3.664209974e-10
4.795037347e-10