/*--------------------------------*- C++ -*----------------------------------*\
  =========                 |
  \\      /  F ield         | OpenFOAM: The Open Source CFD Toolbox
   \\    /   O peration     | Website:  https://openfoam.org
    \\  /    A nd           | Version:  10
     \\/     M anipulation  |
\*---------------------------------------------------------------------------*/
FoamFile
{
    format      ascii;
    class       volScalarField;
    location    "0.0250188088";
    object      CH3OH;
}
// * * * * * * * * * * * * * * * * * * * * * * * * * * * * * * * * * * * * * //

dimensions      [0 0 0 0 0 0 0];

internalField   nonuniform List<scalar> 
5170
(
1.383882147e-11
1.381680466e-11
1.36666883e-11
1.259521557e-11
9.207821843e-13
2.702900056e-11
2.696050626e-11
2.664172998e-11
2.500812095e-11
1.568793642e-11
4.008787593e-11
3.997359627e-11
3.950973717e-11
3.755891725e-11
2.986817937e-11
5.297046198e-11
5.281658908e-11
5.224723822e-11
5.017889005e-11
4.40651704e-11
6.564494609e-11
6.545929631e-11
6.482688632e-11
6.27987927e-11
5.824989099e-11
7.810750074e-11
7.790362527e-11
7.725173015e-11
7.540022065e-11
7.239510858e-11
9.037666268e-11
9.016497774e-11
8.953463633e-11
8.799353398e-11
8.650416677e-11
1.024884083e-10
1.022828584e-10
1.017105531e-10
1.005905638e-10
1.00595928e-10
1.144742695e-10
1.142875316e-10
1.138141392e-10
1.13215508e-10
1.146945797e-10
1.263658572e-10
1.262062389e-10
1.258599771e-10
1.25895787e-10
1.288261962e-10
1.381828061e-10
1.380585085e-10
1.378613016e-10
1.386479135e-10
1.430030249e-10
1.499310676e-10
1.498535251e-10
1.49853754e-10
1.514730627e-10
1.572167432e-10
1.616144175e-10
1.615959325e-10
1.618537173e-10
1.643723186e-10
1.714535882e-10
1.732362714e-10
1.732892274e-10
1.73857749e-10
1.773429249e-10
1.856968543e-10
1.847956672e-10
1.849345776e-10
1.858623646e-10
1.903735265e-10
1.999241143e-10
1.962878338e-10
1.965292034e-10
1.978813731e-10
2.034604092e-10
2.140946276e-10
2.07710199e-10
2.080726809e-10
2.098987014e-10
2.16572908e-10
2.282154458e-10
2.190623484e-10
2.19568226e-10
2.219485945e-10
2.297344104e-10
2.422824364e-10
2.303781624e-10
2.311531492e-10
2.349357611e-10
2.494252104e-10
2.823081684e-10
2.514992176e-10
2.979007344e-10
6.894633186e-10
3.386288576e-09
1.52108744e-08
4.912812804e-19
1.822643201e-20
3.148160865e-21
3.091312694e-21
2.529846176e-21
2.491526858e-19
0
1.985256405e-21
0
1.833100884e-20
4.294845708e-20
0
1.045981818e-19
1.072364291e-21
3.372205659e-21
7.005842454e-20
1.27119285e-19
0
0
0
0
4.357107039e-18
0
6.15195342e-18
3.231357006e-16
0
5.716059929e-17
3.109946851e-16
1.578294065e-16
0
0
1.762387139e-14
0
0
1.458680536e-12
0
1.486924689e-12
4.087720015e-14
3.210615027e-12
1.22697133e-10
0
3.649591467e-12
3.636928116e-12
0
0
7.238041156e-13
4.401811715e-11
0
0
0
0
1.256343426e-11
0
0
5.611703066e-14
0
0
1.170844774e-12
1.907047882e-13
1.053040442e-11
2.849818109e-13
0
0
0
8.660756813e-11
2.199126335e-11
0
0
2.647197478e-11
1.892470139e-10
1.229612095e-10
1.775250367e-11
9.458540247e-12
7.923837741e-11
9.557180681e-11
1.515682609e-10
8.760313326e-11
7.660139956e-11
1.595533618e-10
9.803198896e-11
9.879487254e-11
1.718385672e-10
1.577447559e-10
1.131927688e-10
1.9769396e-10
8.773398749e-11
1.127163067e-10
1.053240326e-10
8.990056368e-11
1.221109843e-10
1.138006502e-09
2.838800913e-10
1.306851896e-10
1.761043602e-10
3.00396635e-11
1.120771013e-07
1.182346119e-08
2.177466902e-09
4.203728869e-10
1.627664202e-11
6.384013956e-10
3.275633226e-09
4.702529778e-08
6.987583902e-07
8.821834354e-06
2.369732251e-09
1.451639404e-08
1.741006154e-07
1.818865186e-06
1.257051881e-05
7.154505081e-09
4.187008011e-08
4.135912473e-07
3.216223153e-06
1.505458239e-05
1.784701553e-08
9.551333913e-08
7.926128784e-07
4.83970593e-06
1.706080228e-05
3.990265236e-08
1.971750765e-07
1.405613815e-06
6.642858465e-06
1.868795566e-05
8.191005176e-08
3.72114301e-07
2.21526421e-06
8.507642335e-06
2.022154611e-05
1.577655465e-07
6.569981081e-07
3.271536815e-06
1.039552238e-05
2.18597885e-05
2.889437238e-07
1.095169801e-06
4.564988665e-06
1.230414536e-05
2.352709649e-05
5.106671504e-07
1.744978044e-06
6.076923589e-06
1.418709304e-05
2.502943093e-05
8.7627376e-07
2.656858661e-06
7.769059232e-06
1.603775095e-05
2.637883139e-05
1.468948154e-06
3.891497404e-06
9.611834335e-06
1.785543436e-05
2.761141081e-05
2.439981422e-06
5.4683879e-06
1.154904731e-05
1.964912651e-05
2.87720971e-05
3.98212552e-06
7.379360842e-06
1.35749825e-05
2.141191204e-05
2.985915142e-05
6.022101817e-06
9.560152013e-06
1.567375966e-05
2.312997085e-05
3.085513997e-05
8.71118341e-06
1.208651871e-05
1.789648868e-05
2.484044105e-05
3.18214037e-05
1.186739811e-05
1.492157617e-05
2.028708037e-05
2.663689555e-05
3.289797006e-05
1.548431209e-05
1.816869879e-05
2.298339728e-05
2.865382908e-05
3.41993976e-05
1.971408841e-05
2.19844539e-05
2.617119051e-05
3.117429318e-05
3.616443553e-05
2.459468355e-05
2.655795008e-05
3.029726646e-05
3.491171364e-05
3.964322377e-05
3.086810564e-05
3.27388545e-05
3.642044884e-05
4.119140387e-05
4.649645703e-05
3.980317616e-05
4.167030851e-05
4.544684051e-05
5.054539235e-05
5.65285879e-05
5.11873832e-05
5.265519588e-05
5.57084082e-05
5.994316732e-05
6.500596828e-05
5.894790613e-05
5.979094374e-05
6.155334999e-05
6.398507502e-05
6.682636124e-05
5.912092446e-05
5.942843591e-05
6.004142106e-05
6.081932758e-05
6.160571348e-05
5.309808358e-05
5.309510143e-05
5.303818535e-05
5.28685914e-05
5.252619557e-05
4.446436298e-05
4.434442116e-05
4.405313459e-05
4.35740625e-05
4.289343765e-05
3.671503507e-05
3.65859834e-05
3.628014053e-05
3.579873778e-05
3.514903138e-05
3.055952419e-05
3.045132506e-05
3.019973689e-05
2.981123971e-05
2.9296104e-05
2.613952442e-05
2.605764094e-05
2.586969698e-05
2.558217621e-05
2.520386922e-05
2.327144084e-05
2.321166931e-05
2.307611834e-05
2.287001947e-05
2.259950117e-05
2.168787718e-05
2.164354291e-05
2.154445731e-05
2.1394629e-05
2.119782533e-05
2.110397154e-05
2.106868007e-05
2.099117714e-05
2.087468617e-05
2.072129334e-05
2.122620952e-05
2.119492439e-05
2.112733982e-05
2.102631622e-05
2.08929311e-05
2.176023872e-05
2.172964612e-05
2.166421208e-05
2.156671708e-05
2.143775386e-05
2.243419483e-05
2.240264739e-05
2.233533831e-05
2.223509152e-05
2.210236237e-05
2.303064234e-05
2.299779943e-05
2.292757033e-05
2.282282497e-05
2.268406911e-05
2.340951533e-05
2.337585599e-05
2.330357168e-05
2.319551843e-05
2.305232067e-05
2.351039498e-05
2.347673756e-05
2.340411648e-05
2.3295297e-05
2.315101809e-05
2.333629907e-05
2.330346625e-05
2.323231062e-05
2.312544321e-05
2.298367878e-05
2.292960787e-05
2.289824254e-05
2.283000803e-05
2.272732133e-05
2.259102663e-05
2.234926127e-05
2.231977392e-05
2.225542512e-05
2.215842169e-05
2.202959683e-05
2.165419359e-05
2.1626783e-05
2.156681989e-05
2.147630318e-05
2.135602659e-05
2.089403428e-05
2.086874123e-05
2.081330752e-05
2.072953643e-05
2.061816515e-05
2.010591286e-05
2.008267634e-05
2.003168197e-05
1.995455419e-05
1.98519663e-05
1.931533824e-05
1.929404418e-05
1.924726742e-05
1.917647183e-05
1.908226578e-05
1.853870312e-05
1.851921313e-05
1.847636868e-05
1.84114906e-05
1.832512485e-05
1.778603832e-05
1.776820771e-05
1.77289913e-05
1.766958225e-05
1.759046882e-05
1.706333448e-05
1.704702208e-05
1.701113124e-05
1.69567416e-05
1.688428867e-05
1.637397203e-05
1.635904427e-05
1.632619145e-05
1.62763917e-05
1.621003278e-05
1.571960774e-05
1.570594115e-05
1.567585759e-05
1.563024512e-05
1.556944871e-05
1.510031163e-05
1.508778374e-05
1.506021298e-05
1.501840667e-05
1.496267124e-05
1.451817427e-05
1.450669114e-05
1.448141115e-05
1.444306958e-05
1.439193939e-05
1.397039587e-05
1.395985347e-05
1.393664423e-05
1.390143872e-05
1.385447969e-05
1.345466411e-05
1.344497223e-05
1.342363546e-05
1.33912664e-05
1.334808124e-05
1.296820342e-05
1.29592814e-05
1.293963942e-05
1.290983809e-05
1.287007009e-05
1.250834618e-05
1.250012211e-05
1.248201622e-05
1.245454207e-05
1.241787202e-05
1.2073018e-05
1.206542567e-05
1.204871028e-05
1.202334307e-05
1.198947806e-05
1.166090763e-05
1.165388259e-05
1.163841605e-05
1.161494176e-05
1.158359786e-05
1.127125991e-05
1.126473729e-05
1.125037791e-05
1.122858289e-05
1.11994766e-05
1.090320909e-05
1.089712488e-05
1.088373275e-05
1.086340624e-05
1.083625838e-05
1.055504629e-05
1.054934456e-05
1.053679722e-05
1.051775454e-05
1.049232005e-05
1.022363574e-05
1.021827395e-05
1.020647705e-05
1.018857473e-05
1.016466286e-05
9.904724118e-06
9.899678246e-06
9.888577398e-06
9.871731806e-06
9.849231003e-06
9.593632484e-06
9.588896982e-06
9.578477598e-06
9.562664636e-06
9.541541826e-06
9.287299706e-06
9.282880375e-06
9.273153142e-06
9.258386964e-06
9.238659725e-06
8.984867177e-06
8.980768515e-06
8.97174208e-06
8.958034505e-06
8.939716913e-06
8.689628593e-06
8.685846513e-06
8.677513002e-06
8.664853155e-06
8.647932385e-06
8.406330288e-06
8.402841024e-06
8.395150122e-06
8.383463389e-06
8.36783974e-06
8.144020969e-06
8.140787994e-06
8.133662743e-06
8.122835405e-06
8.108358961e-06
7.925844536e-06
7.922804329e-06
7.916105614e-06
7.905927531e-06
7.892318468e-06
2.129675078e-05
2.430543931e-05
2.632935866e-05
2.751476959e-05
2.814736252e-05
2.895050437e-05
3.010379025e-05
3.127430925e-05
3.212310784e-05
3.286657726e-05
3.349071858e-05
3.410752228e-05
3.471822185e-05
3.521381556e-05
3.573126484e-05
3.643108726e-05
3.739028013e-05
3.904878677e-05
4.248847848e-05
5.001365325e-05
6.078966136e-05
6.86666093e-05
6.882541103e-05
6.208481691e-05
5.221984455e-05
4.236541146e-05
3.466202814e-05
2.891300597e-05
2.492137086e-05
2.239440518e-05
2.104440153e-05
2.059711037e-05
2.078102836e-05
2.132725399e-05
2.198804781e-05
2.256511855e-05
2.293061508e-05
2.302952228e-05
2.286529752e-05
2.247800286e-05
2.19233452e-05
2.125722071e-05
2.052692862e-05
1.97680795e-05
1.900532105e-05
1.825463027e-05
1.752591431e-05
1.682517366e-05
1.615588444e-05
1.551982711e-05
1.491716029e-05
1.435017278e-05
1.381610072e-05
1.331276841e-05
1.283753593e-05
1.238785937e-05
1.196174992e-05
1.155792279e-05
1.117562203e-05
1.081399571e-05
1.047144925e-05
1.014503154e-05
9.830753388e-06
9.524199875e-06
9.222472883e-06
8.924699381e-06
8.634069209e-06
8.355041853e-06
8.09649551e-06
7.881156027e-06
3.320091142e-05
2.502628245e-06
7.480203876e-08
9.003450725e-09
2.809382507e-09
4.077451382e-05
4.562660105e-05
2.631230544e-06
8.175061609e-08
7.609428761e-08
4.117191433e-05
5.422446537e-05
5.001327775e-06
2.754845421e-07
2.887273926e-07
4.157005252e-05
4.975731524e-05
8.575974273e-06
6.803458745e-07
2.29544464e-07
4.111274571e-05
4.700317614e-05
2.126374341e-05
2.136289098e-06
2.183941169e-07
4.112849287e-05
4.77267052e-05
3.253869634e-05
4.085681843e-06
4.175632825e-07
4.164298619e-05
4.818066167e-05
4.012795744e-05
5.836204142e-06
6.79746509e-07
4.212195906e-05
4.884471756e-05
4.306247085e-05
7.559905195e-06
1.000885241e-06
4.196725479e-05
4.827158736e-05
4.308992731e-05
1.377386978e-05
2.030983417e-06
4.190012384e-05
4.787387135e-05
4.425691426e-05
1.928875649e-05
3.159756146e-06
4.159211962e-05
4.745741434e-05
4.460931437e-05
2.312705331e-05
4.177751045e-06
4.144103724e-05
4.674457711e-05
4.368053839e-05
2.633225629e-05
5.219759962e-06
4.14263596e-05
4.613250448e-05
4.383449322e-05
3.00983523e-05
8.382349464e-06
4.11941745e-05
4.568747288e-05
4.414728723e-05
3.256492897e-05
1.204967481e-05
4.114287182e-05
4.553150717e-05
4.449971336e-05
3.434152178e-05
1.499662616e-05
4.132098953e-05
4.557205146e-05
4.483066642e-05
3.564324403e-05
1.75444998e-05
4.18229596e-05
4.582546294e-05
4.52223714e-05
3.675738968e-05
1.960859949e-05
4.304421245e-05
4.667959182e-05
4.587552284e-05
3.725843945e-05
1.989682255e-05
4.631665275e-05
4.968420711e-05
4.785236277e-05
3.733997691e-05
1.728764916e-05
5.475931815e-05
6.065519702e-05
6.204434363e-05
5.180605324e-05
1.642829721e-05
6.679156248e-05
7.667069769e-05
8.671825891e-05
9.612057274e-05
0.0001040018527
7.398358811e-05
8.234859023e-05
9.001783485e-05
9.567782327e-05
9.725605341e-05
7.190500108e-05
7.567245842e-05
7.73905454e-05
7.603455137e-05
7.087374301e-05
6.305247779e-05
6.314075435e-05
6.135441351e-05
5.752311718e-05
5.185856799e-05
5.206044778e-05
5.064016834e-05
4.796525297e-05
4.420366589e-05
3.966842091e-05
4.183527337e-05
4.018509247e-05
3.777489353e-05
3.480674769e-05
3.151486507e-05
3.413256195e-05
3.274014746e-05
3.086980164e-05
2.868226335e-05
2.633567019e-05
2.847815589e-05
2.741902554e-05
2.605184451e-05
2.449034421e-05
2.283698744e-05
2.458634569e-05
2.381225281e-05
2.283803189e-05
2.173775605e-05
2.057595389e-05
2.213565174e-05
2.157048713e-05
2.087574894e-05
2.009612181e-05
1.926998676e-05
2.083309625e-05
2.04029891e-05
1.988985208e-05
1.931749083e-05
1.870647008e-05
2.04079203e-05
2.005157001e-05
1.964163864e-05
1.918792608e-05
1.869934981e-05
2.059581548e-05
2.026805237e-05
1.990322221e-05
1.950256721e-05
1.906802482e-05
2.113618974e-05
2.08087893e-05
2.045097998e-05
2.005965718e-05
1.963330303e-05
2.178875152e-05
2.144892399e-05
2.107837547e-05
2.067269918e-05
2.022943366e-05
2.236039029e-05
2.200716964e-05
2.161881263e-05
2.119152999e-05
2.072346628e-05
2.272570356e-05
2.236521795e-05
2.19636271e-05
2.15187037e-05
2.102993729e-05
2.282985836e-05
2.247089712e-05
2.206521696e-05
2.161237054e-05
2.111332103e-05
2.267515745e-05
2.23260679e-05
2.192610993e-05
2.147640884e-05
2.09791845e-05
2.230005259e-05
2.196716603e-05
2.158114842e-05
2.114428823e-05
2.065969404e-05
2.175876545e-05
2.144600288e-05
2.107965446e-05
2.066273411e-05
2.019885079e-05
2.110610024e-05
2.081527111e-05
2.0471855e-05
2.007921576e-05
1.964115601e-05
2.038868832e-05
2.012005173e-05
1.980085756e-05
1.943454278e-05
1.90248697e-05
1.964182396e-05
1.939468969e-05
1.909964756e-05
1.876003153e-05
1.837941957e-05
1.889005136e-05
1.866320946e-05
1.839141862e-05
1.807780851e-05
1.77256998e-05
1.814935684e-05
1.794137002e-05
1.769149106e-05
1.740259606e-05
1.70777139e-05
1.742971326e-05
1.723909849e-05
1.700960933e-05
1.674384839e-05
1.644454759e-05
1.673719405e-05
1.656249437e-05
1.635181894e-05
1.61075121e-05
1.583202035e-05
1.607535365e-05
1.59151994e-05
1.572182146e-05
1.549731366e-05
1.524385888e-05
1.544604262e-05
1.529915792e-05
1.512163682e-05
1.491533819e-05
1.468219347e-05
1.48494716e-05
1.471465796e-05
1.455162139e-05
1.436200094e-05
1.414750219e-05
1.42880215e-05
1.416419113e-05
1.401436044e-05
1.383997404e-05
1.364253598e-05
1.375894874e-05
1.364507168e-05
1.350723555e-05
1.334670836e-05
1.316481202e-05
1.326014193e-05
1.315528304e-05
1.302832406e-05
1.288037715e-05
1.271260361e-05
1.278901752e-05
1.269233945e-05
1.257524758e-05
1.243871849e-05
1.228377325e-05
1.234307638e-05
1.225382881e-05
1.214569617e-05
1.201953736e-05
1.187625091e-05
1.192035482e-05
1.183784482e-05
1.173783701e-05
1.162108768e-05
1.148838858e-05
1.151956835e-05
1.144311817e-05
1.135042958e-05
1.124216808e-05
1.111903096e-05
1.113995265e-05
1.106888168e-05
1.098271308e-05
1.088203123e-05
1.076745239e-05
1.078066037e-05
1.071429903e-05
1.063386761e-05
1.053988099e-05
1.043288269e-05
1.04401478e-05
1.037791192e-05
1.030252652e-05
1.021444504e-05
1.011415052e-05
1.011554916e-05
1.005699507e-05
9.986109346e-06
9.903298415e-06
9.808998164e-06
9.802989691e-06
9.747873452e-06
9.681164238e-06
9.603237218e-06
9.514493425e-06
9.498162485e-06
9.446425982e-06
9.383771817e-06
9.310552069e-06
9.227143044e-06
9.198221252e-06
9.149924185e-06
9.091350608e-06
9.022837795e-06
8.944740445e-06
8.902267183e-06
8.857447143e-06
8.802976834e-06
8.739178992e-06
8.666392186e-06
8.613418261e-06
8.57202872e-06
8.521622994e-06
8.462507933e-06
8.394992971e-06
8.336003498e-06
8.297775314e-06
8.251161031e-06
8.196437921e-06
8.133885136e-06
8.078830067e-06
8.043377849e-06
8.000147118e-06
7.949379694e-06
7.891319181e-06
7.864496315e-06
7.831120773e-06
7.790461836e-06
7.742728709e-06
7.688134688e-06
1.125467473e-08
8.175387881e-08
2.260634142e-08
1.10607953e-08
8.798752995e-09
8.161384802e-09
7.94698382e-09
7.876377954e-09
7.855956617e-09
7.850616501e-09
7.847956045e-09
7.843972787e-09
7.839013678e-09
7.834446375e-09
7.832066553e-09
7.834729645e-09
7.831332631e-09
7.821934486e-09
7.817389253e-09
7.814797041e-09
7.812721586e-09
7.810778052e-09
7.808902457e-09
7.807127052e-09
7.805473647e-09
7.803948817e-09
7.802549634e-09
7.801267822e-09
7.800075001e-09
7.798959037e-09
7.797924385e-09
7.796970947e-09
7.796084856e-09
7.795260419e-09
7.794487909e-09
7.793779702e-09
7.793142584e-09
7.792552921e-09
7.79200607e-09
7.791503788e-09
7.791039624e-09
7.790601962e-09
7.790188069e-09
7.789782415e-09
7.789410784e-09
7.789107026e-09
7.788854997e-09
7.788638702e-09
7.788435248e-09
7.788264946e-09
7.788110491e-09
7.787986193e-09
7.787866553e-09
7.78773558e-09
7.787196846e-09
7.783301724e-09
7.75889541e-09
7.646337436e-09
7.255298873e-09
6.741228974e-09
1.45291153e-07
3.756011371e-07
7.787190352e-08
3.041994354e-08
2.254490338e-08
2.052529296e-08
1.98410946e-08
1.957285481e-08
1.946378381e-08
1.941610963e-08
1.939127107e-08
1.937232851e-08
1.935487559e-08
1.933844258e-08
1.932629011e-08
1.93245593e-08
1.931380941e-08
1.92922472e-08
1.928114475e-08
1.927442712e-08
1.926890688e-08
1.926345454e-08
1.925822776e-08
1.925345113e-08
1.924912506e-08
1.92452414e-08
1.924171736e-08
1.923845333e-08
1.923543209e-08
1.923278917e-08
1.923056344e-08
1.922865186e-08
1.922687652e-08
1.92252113e-08
1.922371644e-08
1.922249999e-08
1.922161442e-08
1.922066163e-08
1.921968997e-08
1.921894216e-08
1.921843649e-08
1.921796422e-08
1.921750759e-08
1.921712327e-08
1.921670327e-08
1.921639741e-08
1.921620498e-08
1.921618198e-08
1.921601966e-08
1.921610575e-08
1.92161231e-08
1.92163314e-08
1.921641449e-08
1.921652673e-08
1.921571984e-08
1.921029272e-08
1.918416359e-08
1.909779818e-08
1.893540505e-08
1.884051256e-08
3.83470414e-07
4.951798189e-07
1.187776889e-07
4.742298001e-08
3.528116634e-08
3.219643961e-08
3.112688368e-08
3.067190521e-08
3.045704369e-08
3.03487174e-08
3.028915499e-08
3.024974109e-08
3.021754137e-08
3.018766649e-08
3.016167689e-08
3.014656766e-08
3.01273682e-08
3.010178086e-08
3.008812287e-08
3.007903422e-08
3.007054657e-08
3.006151611e-08
3.005242183e-08
3.004392682e-08
3.003625826e-08
3.002933632e-08
3.00231422e-08
3.001768251e-08
3.001285578e-08
3.00085696e-08
3.000483185e-08
3.000163413e-08
2.999889516e-08
2.999670205e-08
2.999481353e-08
2.999329488e-08
2.999228046e-08
2.999126922e-08
2.999028236e-08
2.99895416e-08
2.998912718e-08
2.998878844e-08
2.998862744e-08
2.998878188e-08
2.998902128e-08
2.998935028e-08
2.998974592e-08
2.9990388e-08
2.999083842e-08
2.999170202e-08
2.999247474e-08
2.99935614e-08
2.999442238e-08
2.999562306e-08
2.999600911e-08
2.999533661e-08
2.999223263e-08
3.000532406e-08
3.013915307e-08
3.035903727e-08
6.596507061e-07
6.153626686e-07
1.875796373e-07
6.077134881e-08
4.380616127e-08
4.020229365e-08
3.899566075e-08
3.845852023e-08
3.81853318e-08
3.803860107e-08
3.79569664e-08
3.790742284e-08
3.787199339e-08
3.784146716e-08
3.781380858e-08
3.779366867e-08
3.777781078e-08
3.776595902e-08
3.776261226e-08
3.776051377e-08
3.775626032e-08
3.774980715e-08
3.774238248e-08
3.773506825e-08
3.772841323e-08
3.77225244e-08
3.771733356e-08
3.771284604e-08
3.770898922e-08
3.770569674e-08
3.770293585e-08
3.770069019e-08
3.769892016e-08
3.769769599e-08
3.769681469e-08
3.76963184e-08
3.769629532e-08
3.769630373e-08
3.769636081e-08
3.769660268e-08
3.769707137e-08
3.769764753e-08
3.769840049e-08
3.769941522e-08
3.770057995e-08
3.770185112e-08
3.770314568e-08
3.77046243e-08
3.770596185e-08
3.770766042e-08
3.7709319e-08
3.771127509e-08
3.771294719e-08
3.771520478e-08
3.771745843e-08
3.772297384e-08
3.774113953e-08
3.781709149e-08
3.805597012e-08
3.833115848e-08
8.862685231e-07
9.751446622e-07
4.908044807e-07
1.14542612e-07
5.343276395e-08
4.534528829e-08
4.345663323e-08
4.275143547e-08
4.241566033e-08
4.224121564e-08
4.214914553e-08
4.210045476e-08
4.207350243e-08
4.205590816e-08
4.20422312e-08
4.203284903e-08
4.203494367e-08
4.204922764e-08
4.206575223e-08
4.207819165e-08
4.208459432e-08
4.208628315e-08
4.208545538e-08
4.208373844e-08
4.208198579e-08
4.208049139e-08
4.207930127e-08
4.207844463e-08
4.207789836e-08
4.207764185e-08
4.207766587e-08
4.207794426e-08
4.207847552e-08
4.207930933e-08
4.208033013e-08
4.208156074e-08
4.208302604e-08
4.20844901e-08
4.208595255e-08
4.208749641e-08
4.208913702e-08
4.209080105e-08
4.209254409e-08
4.209440314e-08
4.209633428e-08
4.209832868e-08
4.21003329e-08
4.210239632e-08
4.210437308e-08
4.210655251e-08
4.210871951e-08
4.211107295e-08
4.211325817e-08
4.211599678e-08
4.211943049e-08
4.212775929e-08
4.215219197e-08
4.223095947e-08
4.242324133e-08
4.261532101e-08
5.076389245e-07
1.450494137e-06
1.05168618e-06
3.714661817e-07
8.824228007e-08
5.194920621e-08
4.643904335e-08
4.497947395e-08
4.441667573e-08
4.416054301e-08
4.403905048e-08
4.398287436e-08
4.395847291e-08
4.394859636e-08
4.394517707e-08
4.394635827e-08
4.396613288e-08
4.400393583e-08
4.403970676e-08
4.40672809e-08
4.408534088e-08
4.409609195e-08
4.410253246e-08
4.410688578e-08
4.411036926e-08
4.411345134e-08
4.411634717e-08
4.411915557e-08
4.412190123e-08
4.412460619e-08
4.41272949e-08
4.412996267e-08
4.413262472e-08
4.413531467e-08
4.413799284e-08
4.414067507e-08
4.414336922e-08
4.414599465e-08
4.414855818e-08
4.415109929e-08
4.415362555e-08
4.415609471e-08
4.415854194e-08
4.416097347e-08
4.416336885e-08
4.416575366e-08
4.416812094e-08
4.417047917e-08
4.417275605e-08
4.417507363e-08
4.417734743e-08
4.417970432e-08
4.418199322e-08
4.418471831e-08
4.418840227e-08
4.419638907e-08
4.421689043e-08
4.427186872e-08
4.43838497e-08
4.448485291e-08
2.392181037e-07
1.498474937e-06
1.743709052e-06
1.049834659e-06
2.803634818e-07
7.542804041e-08
5.115046256e-08
4.681694028e-08
4.55304601e-08
4.502360444e-08
4.480355454e-08
4.470791986e-08
4.466906275e-08
4.465595697e-08
4.465476495e-08
4.466089499e-08
4.469110173e-08
4.47432323e-08
4.479214474e-08
4.483140787e-08
4.485929429e-08
4.487789254e-08
4.489052261e-08
4.489984636e-08
4.490742619e-08
4.491400504e-08
4.491994181e-08
4.492540289e-08
4.493048657e-08
4.493526445e-08
4.49397795e-08
4.49440647e-08
4.494815413e-08
4.495207519e-08
4.495583388e-08
4.495945031e-08
4.496293653e-08
4.496628216e-08
4.496949925e-08
4.497260807e-08
4.497561826e-08
4.497851745e-08
4.4981327e-08
4.498404934e-08
4.498667784e-08
4.498923075e-08
4.499171235e-08
4.499413906e-08
4.499648559e-08
4.499878845e-08
4.50010228e-08
4.500326741e-08
4.500549915e-08
4.500808356e-08
4.501162246e-08
4.501839908e-08
4.503327562e-08
4.506623355e-08
4.512286902e-08
4.516907225e-08
1.476274902e-07
8.390896841e-07
2.32198604e-06
1.928808393e-06
9.181756942e-07
1.852846872e-07
6.501675347e-08
4.999348833e-08
4.669688192e-08
4.560249926e-08
4.516258321e-08
4.497659661e-08
4.490022212e-08
4.487267037e-08
4.486761879e-08
4.487483964e-08
4.491016332e-08
4.496944509e-08
4.502573795e-08
4.507263705e-08
4.510779913e-08
4.513264343e-08
4.515025392e-08
4.516346085e-08
4.51741023e-08
4.51831734e-08
4.519118714e-08
4.519841257e-08
4.520501363e-08
4.521110277e-08
4.521675651e-08
4.522203586e-08
4.522699012e-08
4.523165724e-08
4.523606589e-08
4.524024261e-08
4.524420894e-08
4.524797878e-08
4.525156893e-08
4.525499631e-08
4.525827405e-08
4.526140584e-08
4.526440631e-08
4.526728421e-08
4.527004408e-08
4.527269553e-08
4.527524074e-08
4.5277694e-08
4.528005518e-08
4.528234e-08
4.528455057e-08
4.528674012e-08
4.528895686e-08
4.529150698e-08
4.529498648e-08
4.530100231e-08
4.531230517e-08
4.533295015e-08
4.536286595e-08
4.538425913e-08
2.250299181e-07
4.390621828e-07
2.80147327e-06
2.945211818e-06
2.058781434e-06
6.761978163e-07
1.197150556e-07
5.825344241e-08
4.891337917e-08
4.641269749e-08
4.550605523e-08
4.513754644e-08
4.498545896e-08
4.492666329e-08
4.49099536e-08
4.491433781e-08
4.495125145e-08
4.501396351e-08
4.507436442e-08
4.512606941e-08
4.516643562e-08
4.51962284e-08
4.521802665e-08
4.523454064e-08
4.524774191e-08
4.525881535e-08
4.526842626e-08
4.527695708e-08
4.528464626e-08
4.529165362e-08
4.529809061e-08
4.530404405e-08
4.530957863e-08
4.531474672e-08
4.531959026e-08
4.532414398e-08
4.532843724e-08
4.533249336e-08
4.533633405e-08
4.533997784e-08
4.534344124e-08
4.534673572e-08
4.53498752e-08
4.535287059e-08
4.535573128e-08
4.535846691e-08
4.536108284e-08
4.53635888e-08
4.536599074e-08
4.53683008e-08
4.5370535e-08
4.537274475e-08
4.537502479e-08
4.537767409e-08
4.538130442e-08
4.538717568e-08
4.53970158e-08
4.541251167e-08
4.543196451e-08
4.544361845e-08
3.953470076e-07
2.713980733e-07
2.312314142e-06
3.842086666e-06
3.22726024e-06
1.70409165e-06
3.339954694e-07
8.193001315e-08
5.372404863e-08
4.7900209e-08
4.605773011e-08
4.535159725e-08
4.506372188e-08
4.494824388e-08
4.490847043e-08
4.490463864e-08
4.493989936e-08
4.500375039e-08
4.506649948e-08
4.512143056e-08
4.516566009e-08
4.519948392e-08
4.522498169e-08
4.524458496e-08
4.526023608e-08
4.527321765e-08
4.528431898e-08
4.529403167e-08
4.530267656e-08
4.531047173e-08
4.531756975e-08
4.532408387e-08
4.53300986e-08
4.533568067e-08
4.534088308e-08
4.534574942e-08
4.535031556e-08
4.535461155e-08
4.535866324e-08
4.536249266e-08
4.536611931e-08
4.536955911e-08
4.537282729e-08
4.537593661e-08
4.537889822e-08
4.538172252e-08
4.538441789e-08
4.5386994e-08
4.538945967e-08
4.539182771e-08
4.539412162e-08
4.539640201e-08
4.539880021e-08
4.540164352e-08
4.540557384e-08
4.541168165e-08
4.542122907e-08
4.543496681e-08
4.545064002e-08
4.545831773e-08
5.63534879e-07
9.646925664e-08
1.205102672e-06
4.965827678e-06
4.666001922e-06
3.118851731e-06
9.07774695e-07
1.495622433e-07
6.369670716e-08
5.038359199e-08
4.687963194e-08
4.565614923e-08
4.517453135e-08
4.49790191e-08
4.490505841e-08
4.488720667e-08
4.49174613e-08
4.498046407e-08
4.504424669e-08
4.510132708e-08
4.514848963e-08
4.518565931e-08
4.521448871e-08
4.523708121e-08
4.525523094e-08
4.527021477e-08
4.528288896e-08
4.529383467e-08
4.530345711e-08
4.531204173e-08
4.531979095e-08
4.532685079e-08
4.53333293e-08
4.533930921e-08
4.534485555e-08
4.53500209e-08
4.53548484e-08
4.535937404e-08
4.536362833e-08
4.536763719e-08
4.537142318e-08
4.537500538e-08
4.537840075e-08
4.538162408e-08
4.538468804e-08
4.538760456e-08
4.539038365e-08
4.539303597e-08
4.539557315e-08
4.539801186e-08
4.540038357e-08
4.540276395e-08
4.540531806e-08
4.540841253e-08
4.54127147e-08
4.541921552e-08
4.542891451e-08
4.544209552e-08
4.545619791e-08
4.546171055e-08
7.485618637e-07
1.501018463e-07
7.195177973e-07
5.823944974e-06
6.518673706e-06
4.845979907e-06
1.980174401e-06
3.281030198e-07
8.761955212e-08
5.511064545e-08
4.824779941e-08
4.614758795e-08
4.536487709e-08
4.504744688e-08
4.491977665e-08
4.487798545e-08
4.489797345e-08
4.495726474e-08
4.502039237e-08
4.507844907e-08
4.512763464e-08
4.516746756e-08
4.519920517e-08
4.522462161e-08
4.524529416e-08
4.526240194e-08
4.52767925e-08
4.528909436e-08
4.529978394e-08
4.530921716e-08
4.5317654e-08
4.532528194e-08
4.533223791e-08
4.53386242e-08
4.534451987e-08
4.534998761e-08
4.535507861e-08
4.535983508e-08
4.536429268e-08
4.536848143e-08
4.537242716e-08
4.537615179e-08
4.537967442e-08
4.538301177e-08
4.538617841e-08
4.538918798e-08
4.5392052e-08
4.53947827e-08
4.539739434e-08
4.539990879e-08
4.54023679e-08
4.540486672e-08
4.540760425e-08
4.541098402e-08
4.541568152e-08
4.542260445e-08
4.543255311e-08
4.544549336e-08
4.545864757e-08
4.54624733e-08
1.239746522e-06
2.098431747e-07
5.137166252e-07
4.642950514e-06
8.401808619e-06
6.846433397e-06
3.45790619e-06
7.660389125e-07
1.414919934e-07
6.431325863e-08
5.049047697e-08
4.689077933e-08
4.565549982e-08
4.516453454e-08
4.496054205e-08
4.48835131e-08
4.488730994e-08
4.493948705e-08
4.499976568e-08
4.505729012e-08
4.510733507e-08
4.51489275e-08
4.518292844e-08
4.52107854e-08
4.523382744e-08
4.525306982e-08
4.526927384e-08
4.528305176e-08
4.529491445e-08
4.530527597e-08
4.531445496e-08
4.532268687e-08
4.533014368e-08
4.533695197e-08
4.534320772e-08
4.534898564e-08
4.535434579e-08
4.535933727e-08
4.536400105e-08
4.536837164e-08
4.537247824e-08
4.537634581e-08
4.537999576e-08
4.538344704e-08
4.538671621e-08
4.538981853e-08
4.539276722e-08
4.53955765e-08
4.539826382e-08
4.5400858e-08
4.540341348e-08
4.540604618e-08
4.540898781e-08
4.541267174e-08
4.541776362e-08
4.542508515e-08
4.543525885e-08
4.544799427e-08
4.546035318e-08
4.546253459e-08
1.942093888e-06
3.233639447e-07
4.376632841e-07
2.911031002e-06
1.124587408e-05
9.348509608e-06
5.263532003e-06
1.574052018e-06
2.502657914e-07
8.150827194e-08
5.393090363e-08
4.787004401e-08
4.601713775e-08
4.531492419e-08
4.502191983e-08
4.490342687e-08
4.488732832e-08
4.492979942e-08
4.498522078e-08
4.504053794e-08
4.509003871e-08
4.513220611e-08
4.516752824e-08
4.519713577e-08
4.522210914e-08
4.524326844e-08
4.526122953e-08
4.527651885e-08
4.528962418e-08
4.530098315e-08
4.531095905e-08
4.53198336e-08
4.532781685e-08
4.533506377e-08
4.53416904e-08
4.534778574e-08
4.535342001e-08
4.535864991e-08
4.536352212e-08
4.536807579e-08
4.537234378e-08
4.537635426e-08
4.538013134e-08
4.538369623e-08
4.538706743e-08
4.53902618e-08
4.539329455e-08
4.539618244e-08
4.539894709e-08
4.540162595e-08
4.540428783e-08
4.540706984e-08
4.541023298e-08
4.541423052e-08
4.541970481e-08
4.542738568e-08
4.543772919e-08
4.545023032e-08
4.546182551e-08
4.546230172e-08
2.641442964e-06
4.494969461e-07
3.467413676e-07
2.318489048e-06
1.570913645e-05
1.26319812e-05
7.122519203e-06
2.717996245e-06
4.899570598e-07
1.214504172e-07
6.068771089e-08
4.951209784e-08
4.658493642e-08
4.555266793e-08
4.512746551e-08
4.494865664e-08
4.490379309e-08
4.49318363e-08
4.497947769e-08
4.503051075e-08
4.507779101e-08
4.51191364e-08
4.515459592e-08
4.518498839e-08
4.521116273e-08
4.523374502e-08
4.525317972e-08
4.526985565e-08
4.528417605e-08
4.529655044e-08
4.530735427e-08
4.531690005e-08
4.532543124e-08
4.533313136e-08
4.534013821e-08
4.53465567e-08
4.535246847e-08
4.535793857e-08
4.536301999e-08
4.536775675e-08
4.537218572e-08
4.537633843e-08
4.538024183e-08
4.538391938e-08
4.538739152e-08
4.539067686e-08
4.53937931e-08
4.539676024e-08
4.539960518e-08
4.540237532e-08
4.540515505e-08
4.540810225e-08
4.541150205e-08
4.541581634e-08
4.54216546e-08
4.542965152e-08
4.544010731e-08
4.545233946e-08
4.546318945e-08
4.546201264e-08
3.374747086e-06