/*--------------------------------*- C++ -*----------------------------------*\
  =========                 |
  \\      /  F ield         | OpenFOAM: The Open Source CFD Toolbox
   \\    /   O peration     | Website:  https://openfoam.org
    \\  /    A nd           | Version:  10
     \\/     M anipulation  |
\*---------------------------------------------------------------------------*/
FoamFile
{
    format      ascii;
    class       volScalarField;
    location    "0.0250188088";
    object      CH4;
}
// * * * * * * * * * * * * * * * * * * * * * * * * * * * * * * * * * * * * * //

dimensions      [0 0 0 0 0 0 0];

internalField   nonuniform List<scalar> 
5170
(
0.1560999976
0.1560999976
0.1560999977
0.1560999978
0.1560999998
0.1560999953
0.1560999953
0.1560999954
0.1560999957
0.1560999973
0.1560999931
0.1560999931
0.1560999932
0.1560999935
0.1560999948
0.1560999908
0.1560999909
0.156099991
0.1560999913
0.1560999924
0.1560999886
0.1560999886
0.1560999888
0.1560999891
0.1560999899
0.1560999864
0.1560999865
0.1560999866
0.1560999869
0.1560999874
0.1560999843
0.1560999843
0.1560999844
0.1560999847
0.156099985
0.1560999822
0.1560999822
0.1560999823
0.1560999825
0.1560999825
0.1560999801
0.1560999801
0.1560999802
0.1560999803
0.15609998
0.156099978
0.156099978
0.1560999781
0.1560999781
0.1560999775
0.1560999759
0.1560999759
0.156099976
0.1560999758
0.1560999751
0.1560999738
0.1560999739
0.1560999739
0.1560999736
0.1560999726
0.1560999718
0.1560999718
0.1560999718
0.1560999713
0.1560999701
0.1560999698
0.1560999697
0.1560999696
0.156099969
0.1560999676
0.1560999677
0.1560999677
0.1560999675
0.1560999667
0.1560999651
0.1560999657
0.1560999657
0.1560999654
0.1560999644
0.1560999626
0.1560999637
0.1560999636
0.1560999633
0.1560999621
0.1560999601
0.1560999617
0.1560999616
0.1560999612
0.1560999598
0.1560999576
0.1560999597
0.1560999595
0.1560999581
0.1560999508
0.1560999278
0.1560999476
0.1560999008
0.1560995021
0.1560967329
0.1560843044
1.012848101e-18
0
1.888859303e-20
1.854634655e-20
2.002891391e-20
6.73955163e-19
0
0
0
4.808735383e-20
1.159531764e-19
0
4.443430788e-19
0
0
0
1.223678276e-19
3.025150813e-19
0
6.11358717e-18
0
6.342791148e-18
1.038890098e-17
7.122137629e-17
0
4.835057459e-14
1.486774444e-14
1.180557374e-14
9.231224648e-13
4.475443628e-12
3.205723272e-14
8.979403887e-14
0
5.846703235e-12
6.925953061e-11
2.374368403e-11
0
0
0
7.294924649e-11
1.563917394e-10
0
0
0
0
0
0
5.679931181e-12
0
0
0
0
0
0
0
0
0
0
0
0
0
0
0
0
0
0
0
0
0
0
0
0
0
0
0
0
0
0
0
0
0
0
0
0
0
0
0
0
0
0
1.011425821e-06
0
0
0
0
0.000242793416
1.075271578e-05
1.924957651e-06
3.005628539e-08
5.181969519e-10
0.1560995721
0.1560969584
0.1560536653
0.1554093543
0.1468414847
0.1560978435
0.1560856769
0.1559257241
0.1542737094
0.1421767507
0.1560929399
0.1560573537
0.1556729438
0.1527116688
0.1387055381
0.1560816699
0.1559998791
0.1552552398
0.1507849292
0.1359254633
0.1560581403
0.1558905181
0.1545939186
0.1485637786
0.1336443085
0.1560121639
0.155694663
0.1536372014
0.146219134
0.131556966
0.1559271505
0.1553675166
0.1523727607
0.1438567701
0.129512951
0.1557775107
0.1548570716
0.1508145543
0.1415013665
0.1274845364
0.155521203
0.1540932952
0.1489853011
0.139177908
0.1255249179
0.1550935722
0.1530090767
0.1469220712
0.1368470329
0.1235671979
0.1543926038
0.1515248437
0.1446431585
0.1344724145
0.1215682911
0.1532326769
0.149605534
0.1421989662
0.1320267107
0.1195074062
0.1513663348
0.1472410038
0.1395748229
0.1294913508
0.117364087
0.1488567743
0.1444895408
0.1367717967
0.1268691397
0.1151617004
0.1454839743
0.1412285808
0.13370078
0.1240991093
0.1128504131
0.141443837
0.137490844
0.1303076982
0.1210937474
0.1103436628
0.1367266153
0.1331335719
0.1264121924
0.1176997029
0.1075226116
0.1311854587
0.1280173754
0.1218791567
0.1137460946
0.1041391002
0.1250835063
0.1222658643
0.1166128672
0.1089196046
0.09969672317
0.1179126629
0.1152849857
0.1099270503
0.1025448667
0.09363802765
0.1084008158
0.1059780378
0.1010347669
0.0942810832
0.08628296107
0.09556179433
0.09373520065
0.08993687796
0.08467154622
0.07838860845
0.08269768775
0.0814760368
0.07887780929
0.07518606725
0.07067535019
0.07186641416
0.07105458592
0.06930125501
0.06675729529
0.06357761919
0.06315301211
0.06259917531
0.06139682517
0.05964231858
0.05743589026
0.05638343971
0.05600195797
0.05517150358
0.05394602479
0.05237698239
0.05125697969
0.05097585433
0.05036121174
0.04944875738
0.04827175889
0.04715588115
0.04693956491
0.0464661716
0.04576112564
0.04484708386
0.04377139898
0.04360021833
0.04322538913
0.04266576059
0.04193734639
0.04090480903
0.04076667685
0.04046404061
0.04001124794
0.03941990789
0.03841940929
0.0383062991
0.03805832552
0.03768658978
0.03719963968
0.03621376426
0.0361199301
0.03591404628
0.03560483049
0.03519866775
0.03421255486
0.03413374389
0.0339606621
0.03370025263
0.03335736558
0.03236967484
0.03230273266
0.03215557562
0.03193382427
0.03164123148
0.03066868271
0.03061125047
0.03048490609
0.03029427119
0.03004229587
0.02911256121
0.02906282146
0.02895335486
0.02878802895
0.02856919464
0.02770772992
0.02766423829
0.02756852674
0.02742388658
0.02723221356
0.02645272524
0.02641433441
0.02632987716
0.02620220218
0.02603285812
0.02533558262
0.02530139238
0.02522621705
0.02511255589
0.0249616908
0.02433735613
0.02430667633
0.02423925537
0.02413730982
0.02400191543
0.02343711783
0.02340942039
0.02334858148
0.0232565814
0.0231343339
0.02261576945
0.0225906486
0.02253548593
0.02245206038
0.02234115676
0.02185781614
0.02183495102
0.02178475097
0.02170881945
0.02160783641
0.0211516218
0.02113075232
0.02108493602
0.02101562265
0.02092340571
0.02048880286
0.02046971072
0.02042779606
0.02036437249
0.02027996088
0.01986338238
0.01984588151
0.01980745743
0.01974930333
0.01967187865
0.0192710302
0.01925495886
0.01921967028
0.01916625032
0.0190951058
0.01870850733
0.01869372414
0.01866126035
0.01861210643
0.01854662386
0.01817326524
0.0181596454
0.01812973316
0.01808443348
0.01802406857
0.01766318465
0.01765061786
0.01762301499
0.01758120476
0.01752547517
0.01717638197
0.01716476916
0.01713925998
0.01710061453
0.0170490909
0.01671146809
0.01670072274
0.01667711568
0.01664134552
0.01659364427
0.01626684541
0.01625688858
0.01623501174
0.01620185791
0.01615763612
0.01584120407
0.01583196588
0.01581166593
0.0157808972
0.01573984849
0.01543335151
0.01542476941
0.01540590945
0.01537731924
0.01533916968
0.01504220662
0.01503422455
0.0150166816
0.01499008428
0.01495458767
0.01466679157
0.01465935912
0.0146430228
0.01461825174
0.0145851869
0.01430620796
0.01429927959
0.01428404997
0.01426095429
0.01423012094
0.01395963643
0.01395317113
0.01393895842
0.01391740245
0.0138886204
0.01362629661
0.01362025702
0.01360697919
0.013586839
0.0135599436
0.01330549312
0.0132998457
0.01328742927
0.0132685938
0.01324343743
0.01299652222
0.01299123588
0.01297961257
0.01296197859
0.01293842401
0.01269882357
0.01269387061
0.01268297975
0.01266645556
0.01264438078
0.01241173497
0.01240708935
0.01239687368
0.01238137263
0.0123606624
0.01213487895
0.01213051836
0.01212092906
0.01210637733
0.01208693345
0.0118674598
0.0118633624
0.01185435135
0.01184067606
0.01182240143
0.01160946327
0.01160561155
0.01159714053
0.01158428398
0.01156710192
0.01136005499
0.01135642932
0.01134845496
0.01133635138
0.01132017429
0.01112311202
0.01111969735
0.01111218712
0.01110078753
0.01108555019
0.0109196259
0.0109163826
0.01090924872
0.01089841956
0.01088394337
0.1222805759
0.1214665075
0.1208806186
0.1202041442
0.1194240587
0.1183815438
0.1171403044
0.1157963475
0.1144689794
0.1130727193
0.111566356
0.1099522962
0.1082176034
0.1064288498
0.1045245624
0.1024257097
0.1000411601
0.09703668521
0.09281517978
0.08701745529
0.08050290124
0.0738482402
0.06735206337
0.06119590608
0.05576182389
0.05116260271
0.04735286903
0.04412870959
0.0413618186
0.03895059077
0.03681167625
0.03487404512
0.03308265814
0.03140639435
0.029839726
0.02839294031
0.0270774902
0.02589581747
0.02483929541
0.023891816
0.0230347283
0.0222506498
0.02152532282
0.02084798248
0.02021086968
0.01960846822
0.01903680977
0.0184929444
0.0179745657
0.01747975812
0.01700681082
0.01655449019
0.01612132873
0.01570613834
0.01530783353
0.01492542475
0.01455801672
0.01420477993
0.01386496136
0.01353783196
0.01322275248
0.01291905345
0.01262622479
0.01234362662
0.01207093742
0.0118073657
0.01155296372
0.01130686204
0.01107301005
0.0108720283
0.07288654639
0.005304262765
0.0001513269294
3.789575957e-06
1.232351751e-07
0.08417606393
0.02695082974
0.00156574126
4.710161913e-05
2.49431258e-06
0.08957094463
0.04219775018
0.003846784365
0.0001999761468
1.32052819e-05
0.09283921266
0.05024272401
0.006430798905
0.0004970526501
3.064166457e-05
0.0948190897
0.05542275821
0.0123269629
0.001243077181
8.96726454e-05
0.09585262663
0.05931862616
0.0195876407
0.002451716692
0.0002242059374
0.09630883744
0.06241882315
0.02580143454
0.003732981451
0.0004194543505
0.09642498743
0.06506428474
0.03140458339
0.005109119577
0.0006660867863
0.09637615835
0.06721123133
0.0358413693
0.007705602372
0.001136634127
0.09608615544
0.06879265156
0.03925381876
0.01095331484
0.001796258309
0.09553709472
0.06979062578
0.04180806684
0.01419464656
0.002549489609
0.0947696693
0.07041248325
0.04397160434
0.01755051099
0.003405241818
0.09381140632
0.07078410629
0.04598972296
0.0211386035
0.004709833414
0.09276395955
0.0710038346
0.04767480936
0.02407813642
0.006537126296
0.09157163087
0.0709899432
0.04897444662
0.0265067134
0.008511283832
0.09015709057
0.0706770472
0.04988139268
0.02858687266
0.01058660798
0.08848511405
0.07012004326
0.05049550239
0.03023999327
0.0123693595
0.08611708365
0.0685643615
0.04960083778
0.02978112139
0.01213330936
0.08230605112
0.06501051648
0.04603652616
0.02610140188
0.009061180383
0.07707648059
0.06070997555
0.04313107508
0.02445520528
0.006913998982
0.07199125747
0.0584274169
0.04493740353
0.03240093682
0.02214972849
0.06723755006
0.05678614859
0.04669522238
0.03764536479
0.03023760581
0.0625206016
0.0546665188
0.04700806531
0.04005628617
0.03406834539
0.05773892841
0.05198312147
0.04621830241
0.04076142084
0.03581555514
0.0533236664
0.04909583986
0.04469998446
0.04038099602
0.03629967571
0.04938812235
0.04622005021
0.04282690865
0.03938256368
0.0360135829
0.04600742914
0.0435534977
0.04086505216
0.0380682075
0.03526203828
0.04307543917
0.04112396886
0.03894943853
0.03664515714
0.03428847259
0.04051686081
0.03893272326
0.03714437112
0.03522215296
0.03322657948
0.03826059578
0.03695490694
0.03546520037
0.03384514214
0.03214217494
0.03624068601
0.03515148366
0.03389716152
0.03251898838
0.03105429008
0.03439626604
0.03347773528
0.03241078901
0.03122751668
0.02995753408
0.03267885123
0.03189629599
0.03097991746
0.02995508856
0.02884563851
0.03106185577
0.03038896302
0.02959526856
0.0287011876
0.02772616738
0.02954292058
0.02895952339
0.02826732068
0.02748291148
0.02662229979
0.02813458877
0.0276247164
0.0270172518
0.02632571022
0.02556327635
0.02685013597
0.02640081602
0.02586426427
0.02525144815
0.0245732033
0.02569362197
0.02529432926
0.0248171303
0.02427090327
0.02366454146
0.02465784001
0.02430020893
0.02387284156
0.0233829402
0.02283782368
0.02372782936
0.02340535452
0.02302016864
0.02257815719
0.02208538541
0.02288578504
0.02259345068
0.0222443994
0.02184349422
0.02139581119
0.0221149006
0.02184880518
0.02153112053
0.0211659161
0.02075748661
0.02140129454
0.02115833019
0.02086820537
0.0205343674
0.02016048722
0.0207344469
0.02051206113
0.02024638827
0.01994037982
0.01959720087
0.02010676823
0.01990280602
0.01965898671
0.01937785892
0.01906217067
0.01951287
0.01932547225
0.01910128665
0.01884252846
0.0185515964
0.01894888996
0.01877643324
0.01856995722
0.01833139699
0.018062855
0.01841196852
0.01825302132
0.01806256659
0.01784230141
0.01759407446
0.01789987904
0.01775317255
0.01757724654
0.01737359391
0.01714384448
0.01741077596
0.01727518058
0.01711245575
0.01692391808
0.01671100745
0.01694300999
0.01681751642
0.0166668067
0.01649204442
0.01629450409
0.01649540407
0.01637910722
0.01623934565
0.01607715056
0.01589365266
0.01606653708
0.01595862543
0.01582885622
0.01567814514
0.0155074972
0.01565526559
0.01555501256
0.01543437873
0.01529417891
0.01513530801
0.01526054338
0.01516729757
0.01505502979
0.01492446655
0.01477640613
0.01488141455
0.01479458926
0.01468999389
0.01456827743
0.01443015313
0.01451701416
0.01443608121
0.01433853309
0.01422495054
0.01409597185
0.01416653826
0.01409101834
0.01399994959
0.01389385249
0.01377329911
0.01382925835
0.01375871969
0.01367361807
0.01357442075
0.0134616412
0.01350446457
0.01343851172
0.01335890757
0.01326607226
0.01316046731
0.01319153841
0.01312981662
0.01305528811
0.01296833117
0.01286936111
0.01288982343
0.01283200196
0.01276215538
0.01268062484
0.01258778468
0.01259882779
0.01254461294
0.01247909861
0.01240259292
0.01231543367
0.01231792045
0.01226703335
0.01220551879
0.01213365548
0.01205174879
0.01204680006
0.01199900402
0.01194120687
0.01187366091
0.01179664229
0.01178467809
0.01173973745
0.01168537576
0.01162182189
0.01154932622
0.0115316304
0.0114893615
0.01143821577
0.01137840101
0.01131014396
0.0112867768
0.01124696676
0.01119878227
0.01114241274
0.01107806447
0.01105408833
0.01101657968
0.01097116749
0.01091802357
0.01085733452
0.01085405055
0.01081839916
0.01077522586
0.01072468886
0.01066696027
3.757406992e-08
2.194018263e-09
0
0
0
0
0
0
0
0
0
0
0
0
0
0
0
0
0
0
0
0
0
0
0
0
0
0
0
0
0
0
0
0
0
0
0
0
0
0
0
0
0
0
0
0
0
0
0
0
0
0
0
0
0
0
0
0
0
0
8.887353901e-07
2.629474049e-07
7.367105853e-08
1.222237016e-08
1.227461854e-09
0
0
0
0
0
0
0
0
0
0
0
0
0
0
0
0
0
0
0
0
0
0
0
0
0
0
0
0
0
0
0
0
0
0
0
0
0
0
0
0
0
0
0
0
0
0
0
0
0
0
0
0
0
0
0
5.280294729e-06
3.579576477e-06
6.862916739e-07
1.309478175e-07
3.78916992e-08
1.46694529e-08
5.984421414e-09
1.765817811e-09
0
0
0
0
0
0
0
0
0
0
0
0
0
0
0
0
0
0
0
0
0
0
0
0
0
0
0
0
0
0
0
0
0
0
0
0
0
0
0
0
0
0
0
0
0
0
0
0
0
0
0
0
1.464299594e-05
1.498898734e-05
5.359549416e-06
9.03565606e-07
2.505934711e-07
1.089729566e-07
5.800785553e-08
3.192152161e-08
1.648519998e-08
7.291158085e-09
2.119830293e-09
0
0
0
0
0
0
0
0
0
0
0
0
0
0
0
0
0
0
0
0
0
0
0
0
0
0
0
0
0
0
0
0
0
0
0
0
0
0
0
0
0
0
0
0
0
0
0
0
0
2.550319414e-05
3.256056001e-05
2.761003469e-05
6.380510817e-06
1.317162026e-06
4.726347894e-07
2.38376586e-07
1.357743116e-07
7.819156213e-08
4.294751082e-08
2.128677535e-08
8.716438429e-09
2.336923145e-09
0
0
0
0
0
0
0
0
0
0
0
0
0
0
0
0
0
0
0
0
0
0
0
0
0
0
0
0
0
0
0
0
0
0
0
0
0
0
0
0
0
0
0
0
0
0
0
2.702682668e-05
4.447978069e-05
6.158255901e-05
3.284385525e-05
6.45244092e-06
1.675804075e-06
7.113578355e-07
3.819339014e-07
2.203991708e-07
1.269754617e-07
7.002777313e-08
3.550704059e-08
1.551268172e-08
4.993429496e-09
5.119539288e-10
0
0
0
0
0
0
0
0
0
0
0
0
0
0
0
0
0
0
0
0
0
0
0
0
0
0
0
0
0
0
0
0
0
0
0
0
0
0
0
0
0
0
0
0
0
3.24083562e-05
4.257582657e-05
8.69378529e-05
8.822293458e-05
3.057364243e-05
5.988764241e-06
1.909658831e-06
9.055510497e-07
5.033897465e-07
2.914896394e-07
1.672654003e-07
9.212826544e-08
4.706104291e-08
2.109423751e-08
7.331552037e-09
1.304343364e-09
0
0
0
0
0
0
0
0
0
0
0
0
0
0
0
0
0
0
0
0
0
0
0
0
0
0
0
0
0
0
0
0
0
0
0
0
0
0
0
0
0
0
0
0
5.227805548e-05
2.876094138e-05
9.560540985e-05
0.0001406761349
9.932926186e-05
2.35194231e-05
5.351148315e-06
2.070069476e-06
1.055920615e-06
5.957674116e-07
3.442334702e-07
1.965135016e-07
1.07914219e-07
5.52189437e-08
2.500110349e-08
8.9752468e-09
1.820963201e-09
0
0
0
0
0
0
0
0
0
0
0
0
0
0
0
0
0
0
0
0
0
0
0
0
0
0
0
0
0
0
0
0
0
0
0
0
0
0
0
0
0
0
0
0.0001043857016
2.09045004e-05
9.291581933e-05
0.000179344802
0.0001981732701
8.839962037e-05
1.707509713e-05
4.845631999e-06
2.134180271e-06
1.134028768e-06
6.44203805e-07
3.718534471e-07
2.119905555e-07
1.163523401e-07
5.955005319e-08
2.699112649e-08
9.73871188e-09
2.041579909e-09
0
0
0
0
0
0
0
0
0
0
0
0
0
0
0
0
0
0
0
0
0
0
0
0
0
0
0
0
0
0
0
0
0
0
0
0
0
0
0
0
0
0
0.000195623471
2.215328524e-05
7.359880428e-05
0.0002083987041
0.00028661613
0.0002255683115
5.904106288e-05
1.209258037e-05
4.303722805e-06
2.075067912e-06
1.133238464e-06
6.494985428e-07
3.768182841e-07
2.156018283e-07
1.18517012e-07
6.055210282e-08
2.729763224e-08
9.77227687e-09
1.984762604e-09
0
0
0
0
0
0
0
0
0
0
0
0
0
0
0
0
0
0
0
0
0
0
0
0
0
0
0
0
0
0
0
0
0
0
0
0
0
0
0
0
0
0.0003177097871
3.240039764e-05
4.477584481e-05
0.0002217970239
0.0003828685338
0.0004090071555
0.0001677304773
3.280014924e-05
9.059840222e-06
3.7773988e-06
1.923120092e-06
1.072224868e-06
6.225710595e-07
3.64695502e-07
2.098215592e-07
1.153759559e-07
5.864967755e-08
2.618093653e-08
9.111231402e-09
1.67733782e-09
0
0
0
0
0
0
0
0
0
0
0
0
0
0
0
0
0
0
0
0
0
0
0
0
0
0
0
0
0
0
0
0
0
0
0
0
0
0
0
0
0.0004907493189
5.295055529e-05
3.034375367e-05
0.0002152359422
0.0004907452484
0.0006235777428
0.0003976631299
8.967909149e-05
2.052764574e-05
6.984570112e-06
3.181599814e-06
1.687870375e-06
9.671641073e-07
5.729045695e-07
3.396783735e-07
1.961983427e-07
1.075581909e-07
5.42122499e-08
2.364547633e-08
7.795354043e-09
1.149339884e-09
0
0
0
0
0
0
0
0
0
0
0
0
0
0
0
0
0
0
0
0
0
0
0
0
0
0
0
0
0
0
0
0
0
0
0
0
0
0
0
0.0006979313841
8.339511268e-05
2.629190476e-05
0.0001745368854
0.0006061624902
0.0008947079457
0.0007506427734
0.0002372555448
4.841538776e-05
1.340687956e-05
5.213989017e-06
2.559513387e-06
1.426509712e-06
8.457838926e-07
5.110900664e-07
3.0534517e-07
1.7609209e-07
9.576367926e-08
4.727273251e-08
1.97986312e-08
5.926170152e-09
4.843589968e-10
0
0
0
0
0
0
0
0
0
0
0
0
0
0
0
0
0
0
0
0
0
0
0
0
0
0
0
0
0
0
0
0
0
0
0
0
0
0
0.00105113949
0.0001391458488
2.871594314e-05
0.0001310503206
0.0007272750515
0.001236333066
0.001235296187
0.0005560557405
0.0001136714951
2.725842551e-05
8.758434219e-06
3.844914998e-06
2.04446521e-06
1.197951242e-06
7.294448948e-07
4.450229628e-07
2.654280769e-07
1.517288579e-07
8.080181132e-08
3.845260505e-08
1.50439285e-08
3.818299936e-09
9.591674273e-12
0
0
0
0
0
0
0
0
0
0
0
0
0
0
0
0
0
0
0
0
0
0
0
0
0
0
0
0
0
0
0
0
0
0
0
0
0
0.001490255721
0.0002196083811
4.115670593e-05
0.0001207435317
0.0008875596838
0.001671852847
0.001795660341
0.001105482076
0.0002740032775
6.096909525e-05
1.56153172e-05
5.837253724e-06
2.88969226e-06
1.651943556e-06
1.003451742e-06
6.186497081e-07
3.769151137e-07
2.226399253e-07
1.245602096e-07
6.405919637e-08
2.876824953e-08
1.002831603e-08
1.821180395e-09
0
0
0
0
0
0
0
0
0
0
0
0
0
0
0
0
0
0
0
0
0
0
0
0
0
0
0
0
0
0
0
0
0
0
0
0
0
0.002019606734
0.0002985724288
6.019446916e-05
0.0001504059871
0.001205170299
0.002292638017
0.002453174494
0.001777620665
0.0006238247351
0.0001468779999
3.069605902e-05
9.277335154e-06
4.123750082e-06
2.260085643e-06
1.354776896e-06
8.364671067e-07
5.157366777e-07
3.111529506e-07
1.798996741e-07
9.743266007e-08
4.762219191e-08
1.955859527e-08
5.592947416e-09
3.107738835e-10
0
0
0
0
0
0
0
0
0
0
0
0
0
0
0
0
0
0
0
0
0
0
0
0
0
0
0
0
0
0
0
0
0
0
0
0
0.002544991305
0.0004455145614
0.0001017110839
0.0002562298982
0.001970529403
0.003231334794
0.003221220502
0.002409305381
0.001211142435
0.0003531825514
6.92182554e-05
1.663663919e-05
6.285590772e-06
3.188130918e-06
1.84910913e-06
1.129831052e-06
6.98963813e-07
4.272400078e-07
2.526434168e-07
1.416675826e-07
7.327319311e-08
3.331644079e-08
1.199151695e-08
2.452452465e-09
0
0
0
0
0
0
0
0
0
0
0
0
0
0
0
0
0
0
0
0
0
0
0
0
0
0
0
0
0
0
0
0
0
0
0
0
0.002605248573
0.0004926147733
0.0002256987274
0.001077349665
0.003618634543
0.004503564404
0.004082175149
0.003069196943
0.001868732151
0.0007805307247
0.0001870461577
3.868852745e-05
1.13934372e-05
4.923513663e-06
2.652445372e-06
1.573950862e-06
9.662013237e-07
5.932100659e-07
3.559111842e-07
2.047695699e-07
1.104909647e-07
5.403502168e-08
2.242559459e-08
6.678771897e-09
5.886641807e-10
0
0
0
0
0
0
0
0
0
0
0
0
0
0
0
0
0
0
0
0
0
0
0
0
0
0
0
0
0
0
0
0
0
0
0
0.00194260075
0.0004395131942
0.0006241337012
0.004027337099
0.005914813396
0.005909449039
0.005005158348
0.003797682256
0.00256464264
0.001425640536
0.0005433307932
0.0001312193717
2.969224477e-05
9.420322318e-06
4.245702779e-06
2.335088979e-06
1.394489159e-06
8.522124852e-07
5.16120401e-07
3.032515352e-07
1.695050142e-07
8.788265199e-08
4.051354446e-08
1.520293029e-08
3.595113152e-09
0
0
0
0
0
0
0
0
0
0
0
0
0
0
0
0
0
0
0
0
0
0
0
0
0
0
0
0
0
0
0
0
0
0
0
0.001751679143
0.001383595051
0.006143757537
0.008224175756
0.008274056964
0.007349156929
0.006051147383
0.004677708069
0.003374532381
0.002209718977
0.001198525581
0.000449140365
0.0001097755364
2.565306391e-05
8.395563018e-06
3.865550139e-06
2.149374327e-06
1.285146744e-06
7.802942735e-07
4.665952714e-07
2.691403227e-07
1.467145413e-07
7.346141482e-08
3.211580392e-08
1.09433266e-08
2.002584198e-09
0
0
0
0
0
0
0
0
0
0
0
0
0
0
0
0
0
0
0
0
0
0
0
0
0
0
0
0
0
0
0
0
0
0
0.01565465889
0.01351875046
0.0128608472
0.01186768945
0.01048464597
0.008910918302
0.007304311968
0.005766187841
0.004356402927
0.003104268647
0.002018011102
0.001089657701
0.000408056448
9.968458299e-05
2.35192415e-05
7.839064103e-06
3.665578439e-06
2.053068186e-06
1.229024375e-06
7.429971807e-07
4.403597782e-07
2.507084783e-07
1.342360618e-07
6.552615887e-08
2.750195624e-08
8.635332307e-09
1.162902477e-09
0
0
0
0
0
0
0
0
0
0
0
0
0
0
0
0
0
0
0
0
0
0
0
0
0
0
0
0
0
0
0
0
0
0.02427008041
0.02015149022
0.01723191997
0.01481276739
0.01263226699
0.01061190522
0.008743999632
0.007037834814
0.005501054209
0.004135318016
0.002938714988
0.001907437003
0.00102976603
0.0003845764411
9.282539009e-05
2.202777868e-05
7.492933154e-06
3.558901351e-06
2.013380334e-06
1.209350452e-06
7.300016517e-07
4.305815709e-07
2.432916787e-07
1.288448818e-07
6.18332997e-08
2.524552569e-08
7.456735072e-09
7.140434003e-10
0
0
0
0
0
0
0
0
0
0
0
0
0
0
0
0
0
0
0
0
0
0
0
0
0
0
0
0
0
0
0
0
0.02857741417
0.02397744953
0.02032969978
0.01730196858
0.01468773509
0.01237100329
0.01029532585
0.008432100166
0.006764029859
0.005277830162
0.003962465183
0.002810501875
0.001819286624
0.0009785908274
0.000361603768
8.54180231e-05
2.05013939e-05
7.179970042e-06
3.493290565e-06
2.001197686e-06
1.207820196e-06
7.293821773e-07
4.293723669e-07
2.415764999e-07
1.269615503e-07
6.026837671e-08
2.413308267e-08
6.801159025e-09
4.371836525e-10
0
0
0
0
0
0
0
0
0
0
0
0
0
0
0
0
0
0
0
0
0
0
0
0
0
0
0
0
0
0
0
0.03095170119
0.02645517423
0.02265530981
0.01940140877
0.01657530518
0.01407953222
0.01185353684
0.009860348566
0.008074214621
0.006475607115
0.005049222401
0.003783982375
0.00267419535
0.001721017784
0.0009177021235
0.0003332594566
7.684954825e-05
1.877329016e-05
6.861139877e-06
3.434180117e-06
1.993745924e-06
1.20937451e-06
7.311581591e-07
4.298561559e-07
2.408993569e-07
1.259452672e-07
5.924008977e-08
2.330421493e-08
6.275727257e-09
2.105390318e-10
0
0
0
0
0
0
0
0
0
0
0
0
0
0
0
0
0
0
0
0
0
0
0
0
0
0
0
0
0
0
0.03210404546
0.02803034939
0.02440458848
0.02114086241
0.01823032159
0.01564218897
0.01332491099
0.01124005543
0.009362091725
0.007670541954
0.006149120661
0.004785782228
0.003573176681
0.002509308921
0.001598734131
0.0008386928832
0.0002959237058
6.666073221e-05
1.68492576e-05
6.478314789e-06
3.346087612e-06
1.970090799e-06
1.201546979e-06
7.27030769e-07
4.264559466e-07
2.382483643e-07
1.238370083e-07
5.761919303e-08
2.217962389e-08
5.656081705e-09
2.120706524e-11
0
0
0
0
0
0
0
0
0
0
0
0
0
0
0
0
0
0
0
0
0
0
0
0
0
0
0
0
0
0.03242481755
0.02878169735
0.02541694315
0.02234151402
0.01952969559
0.01695703405
0.01460994213
0.01248435272
0.01055307457
0.008798850841
0.007207230992
0.005767398095
0.004472557433
0.003319942176
0.002311081649
0.001452735095
0.0007445431821
0.0002526431527
5.622096099e-05
1.49335211e-05
6.055265881e-06
3.219800903e-06
1.918722412e-06
1.174938994e-06
7.10749043e-07
4.162229493e-07
2.315557814e-07
1.19375136e-07
5.467931779e-08
2.03918233e-08
4.821572658e-09
0
0
0
0
0
0
0
0
0
0
0
0
0
0
0
0
0
0
0
0
0
0
0
0
0
0
0
0
0
0.03219539896
0.02898686663
0.02594480573
0.02309497151
0.02044379712
0.01798163176
0.0156937064
0.01357646146
0.01162464261
0.009835821055
0.008197951312
0.006702721079
0.005345250196
0.004123647327
0.003038566002
0.00209349866
0.001294869297
0.0006422071254
0.0002052025451
4.544847995e-05
1.291820224e-05
5.557472695e-06
3.046303937e-06
1.835923248e-06
1.127167379e-06
6.816992204e-07
3.979061827e-07
2.198285652e-07
1.118774898e-07
5.001910756e-08
1.774926317e-08
3.689566523e-09
0
0
0
0
0
0
0
0
0
0
0
0
0
0
0
0
0
0
0
0
0
0
0
0
0
0
0
0
0.03166274986
0.02885027659
0.02612446301
0.02351853947
0.02104949616
0.01872313779
0.01653684082
0.01448231748
0.01255800606
0.01076084668
0.009098533865
0.007567508332
0.006165883047
0.00489333804
0.003750831526
0.002740325643
0.001865468355
0.001130576613
0.0005357379772
0.0001582623936
3.55823688e-05
1.09934439e-05
5.02625724e-06
2.83495215e-06
1.724532919e-06
1.060717188e-06
6.398540632e-07
3.710864964e-07
2.026821426e-07
1.011277183e-07
4.358956376e-08
1.429773453e-08
2.301787347e-09
0
0
0
0
0
0
0
0
0
0
0
0
0
0
0
0
0
0
0
0
0
0
0
0
0
0
0
0.03096882526
0.02850403394
0.02607066405
0.02370320243
0.02142317965
0.01924236755
0.01716586347
0.01519391309
0.01332339606
0.01155643041
0.009895266485
0.008346042214
0.006917454261
0.005610893362
0.004427900419
0.003370000921
0.002438836345
0.001637525981
0.0009684505628
0.0004349438469
0.0001194783486
2.802778002e-05
9.405886952e-06
4.5209416e-06
2.603516173e-06
1.592672718e-06
9.777778899e-07
5.860785426e-07
3.362322932e-07
1.804880022e-07
8.749709614e-08
3.576692675e-08
1.037283669e-08
8.667611321e-10
0
0
0
0
0
0
0
0
0
0
0
0
0
0
0
0
0
0
0
0
0
0
0
0
0
0
0.03019035392
0.02802457007
0.02585143072
0.02370360429
0.02160398228
0.01956769003
0.01760429135
0.01571966351
0.01391662922
0.01219617417
0.010564018
0.00902595489
0.007587367996
0.006263714403
0.00505695385
0.00396830667
0.002998438369
0.002148083158
0.001419876247
0.0008139215339
0.0003427776268
8.846730134e-05
2.186971026e-05
7.974356146e-06
4.015263727e-06
2.354049054e-06
1.443519071e-06
8.814483763e-07
5.226851196e-07
2.949828555e-07
1.544315992e-07
7.186570007e-08
2.723876315e-08
6.588477685e-09
0
0
0
0
0
0
0
0
0
0
0
0
0
0
0
0
0
0
0
0
0
0
0
0
0
0
0.02935621122
0.02744450014
0.02549821253
0.02354719226
0.02161421548
0.01971620727
0.01786563479
0.01607190476
0.0143424151
0.01268241446
0.01109569537
0.009589578807
0.00817115592
0.006845448058
0.005629662623
0.004524800856
0.003530959866
0.002647820489
0.001875598378
0.001217078043
0.0006703002236
0.0002598682
6.316021488e-05
1.666638026e-05
6.6396239e-06
3.506876582e-06
2.088379712e-06
1.279938211e-06
7.746185646e-07
4.523265544e-07
2.495130395e-07
1.26142362e-07
5.53514569e-08
1.868474821e-08
3.267680958e-09
0
0
0
0
0
0
0
0
0
0
0
0
0
0
0
0
0
0
0
0
0
0
0
0
0
0.02847013531
0.02677385602
0.02502462655
0.02324937268
0.0214700729
0.01970439146
0.01796651329
0.01626799301
0.0146185247
0.01302646618
0.01149847227
0.01003971845
0.008657242887
0.007357252883
0.006145670391
0.005037248028
0.004031849836
0.003128690308
0.002326978402
0.001626913283
0.001031037045
0.0005398194424
0.000190784743
4.47044309e-05
1.280880601e-05
5.521799901e-06
3.025723146e-06
1.818149096e-06
1.109243065e-06
6.627509024e-07
3.791701673e-07
2.028839236e-07
9.780607464e-08
3.947831579e-08
1.105984307e-08
6.977054599e-10
0
0
0
0
0
0
0
0
0
0
0
0
0
0
0
0
0
0
0
0
0
0
0
0
0.02753476761
0.02602290891
0.02444673121
0.02283036349
0.02119455931
0.01955694362
0.01793243039
0.01633368817
0.01477157598
0.01325543562
0.01179336115
0.01039190979
0.009056596453
0.007793637356
0.006607577322
0.005506358484
0.004499537601
0.003586388265
0.002765991505
0.002037834682
0.001402695661
0.0008641359665
0.0004240752328
0.000133509123
3.124501401e-05
9.906698973e-06
4.585595731e-06
2.584521695e-06
1.557511918e-06
9.40933966e-07
5.52075165e-07
3.074450337e-07
1.580475328e-07
7.145815611e-08
2.560990033e-08
5.344158786e-09
0
0
0
0
0
0
0
0
0
0
0
0
0
0
0
0
0
0
0
0
0
0
0
0
0.02656557718
0.02521419549
0.02379245822
0.02232185178
0.02082159157
0.0193086124
0.01779771115
0.01630175759
0.01483192094
0.01339789628
0.0120080391
0.01066949384
0.00938777465
0.008167847045
0.007015091806
0.005933082403
0.004932880634
0.004017788502
0.003187001223
0.00243997769
0.001777079055
0.001200559552
0.0007147510495
0.0003243540983
9.077690581e-05
2.210983311e-05
7.768262284e-06
3.810518215e-06
2.187386823e-06
1.312860176e-06
7.807382197e-07
4.471002363e-07
2.405242859e-07
1.173698144e-07
4.857249702e-08
1.443432519e-08
1.425691729e-09
0
0
0
0
0
0
0
0
0
0
0
0
0
0
0
0
0
0
0
0
0
0
0
0.02559159406
0.02438180186
0.02309935381
0.0217631673
0.02039066
0.01899759352
0.01759805087
0.01620449892
0.01482789204
0.0134777989
0.01216250938
0.01088916945
0.009663926791
0.008491561115
0.007376324186
0.006322277495
0.005334765948
0.004423732981
0.00358894292
0.002830202371
0.002147775205
0.001543065273
0.001019736266
0.000580708841
0.0002404306571
6.172156477e-05
1.602369552e-05
6.167766495e-06
3.16350149e-06
1.832879773e-06
1.088648126e-06
6.336992662e-07
3.519639821e-07
1.812823983e-07
8.264262802e-08
3.021297621e-08
6.665530738e-09
0
0
0
0
0
0
0
0
0
0
0
0
0
0
0
0
0
0
0
0
0
0
0
0.02464551978
0.02356107762
0.0224041178
0.02119107433
0.01993744353
0.01865755489
0.01736445557
0.0160698797
0.01478427233
0.01351684086
0.01227563845
0.01106763413
0.009898777153
0.008774050199
0.007697796663
0.006674261556
0.005706632414
0.004804212091
0.003970575903
0.003205890797
0.002510577613
0.001885728365
0.001333542191
0.000858596232
0.0004624504239
0.000171329498
4.113007101e-05
1.161294244e-05
4.89395968e-06
2.610360665e-06
1.517368802e-06
8.875338849e-07
5.032233762e-07
2.693336675e-07
1.313659216e-07
5.465141402e-08
1.650776381e-08
1.798253224e-09
0
0
0
0
0
0
0
0
0
0
0
0
0
0
0
0
0
0
0
0
0
0
0.02375337403
0.02277923997
0.02173422747
0.0206324327
0.01948743441
0.01831203477
0.0171180954
0.01591645077
0.01471688038
0.01352811885
0.01235790025
0.01121302025
0.0100994193
0.009022292013
0.007985900833
0.006994005061
0.006050334012
0.005160351659
0.004332003521
0.003566024131
0.002863148946
0.002224369144
0.001651287261
0.001146413959
0.0007140021223
0.0003578431766
0.0001171256062
2.766090546e-05
8.666110081e-06
3.928378528e-06
2.146788994e-06
1.241504532e-06
7.116631695e-07
3.912526404e-07
2.003581846e-07
9.12251277e-08
3.348766656e-08
7.505117815e-09
0
0
0
0
0
0
0
0
0
0
0
0
0
0
0
0
0
0
0
0
0
0
0.02292908081
0.02205114652