/*--------------------------------*- C++ -*----------------------------------*\
  =========                 |
  \\      /  F ield         | OpenFOAM: The Open Source CFD Toolbox
   \\    /   O peration     | Website:  https://openfoam.org
    \\  /    A nd           | Version:  10
     \\/     M anipulation  |
\*---------------------------------------------------------------------------*/
FoamFile
{
    format      ascii;
    class       volScalarField;
    location    "0.0250188088";
    object      CO;
}
// * * * * * * * * * * * * * * * * * * * * * * * * * * * * * * * * * * * * * //

dimensions      [0 0 0 0 0 0 0];

internalField   nonuniform List<scalar> 
5170
(
2.753474698e-11
2.749039842e-11
2.718955458e-11
2.50498657e-11
1.839494067e-12
5.390095577e-11
5.376266904e-11
5.312208839e-11
4.984864367e-11
3.123530748e-11
8.007898985e-11
7.984792305e-11
7.891440671e-11
7.499718218e-11
5.958910796e-11
1.059420722e-10
1.056307461e-10
1.044841409e-10
1.00326656e-10
8.805308913e-11
1.314044741e-10
1.310286549e-10
1.297544106e-10
1.256759049e-10
1.165330893e-10
1.56451417e-10
1.560382626e-10
1.547237844e-10
1.509988191e-10
1.449538025e-10
1.811215365e-10
1.806918887e-10
1.794193587e-10
1.763166558e-10
1.73316547e-10
2.054902099e-10
2.050719176e-10
2.039144985e-10
2.016569615e-10
2.016622168e-10
2.296239904e-10
2.292424402e-10
2.282824028e-10
2.270727012e-10
2.300447149e-10
2.535891132e-10
2.532609963e-10
2.525554252e-10
2.526229807e-10
2.585216687e-10
2.774276893e-10
2.771695175e-10
2.767628561e-10
2.783446934e-10
2.871224104e-10
3.011536702e-10
3.009885652e-10
3.009789491e-10
3.042435925e-10
3.158340156e-10
3.247762142e-10
3.24729172e-10
3.252388529e-10
3.303244737e-10
3.446310212e-10
3.483024291e-10
3.483987082e-10
3.495364134e-10
3.565828854e-10
3.734796466e-10
3.717294171e-10
3.719987409e-10
3.738639812e-10
3.829949707e-10
4.023317572e-10
3.950448161e-10
3.955210026e-10
3.98247184e-10
4.095503991e-10
4.310996244e-10
4.182396698e-10
4.189610637e-10
4.226499173e-10
4.36183729e-10
4.597971097e-10
4.413160416e-10
4.423443727e-10
4.472731529e-10
4.639223371e-10
4.921854494e-10
4.669799154e-10
4.765801678e-10
5.459874631e-10
1.030871575e-09
2.715433397e-09
1.300329224e-09
5.037505838e-09
3.700737524e-08
2.595423615e-07
1.259727747e-06
0.002459007364
0.002457594681
0.002457063123
0.00245809053
0.00245828639
0.001552042282
0.001653555882
0.001652289407
0.001638124216
0.001502876185
0.001077654081
0.001192704072
0.001192711267
0.001149694156
0.0009947341843
0.0007993734282
0.000910578859
0.000914099287
0.0008540650926
0.0007214767852
0.0006243431125
0.0007252270951
0.0007283755986
0.0006687974355
0.000546036083
0.0005239501923
0.0006028095613
0.0006108201109
0.0005502035865
0.0004513396509
0.0004391548702
0.0005208540899
0.0005272697482
0.000479089555
0.000411540534
0.0004054052833
0.0004509905587
0.0004582917072
0.0004335148269
0.0003836147233
0.0003846162754
0.0004154117448
0.000420392821
0.0003987429144
0.0003556325385
0.0003612639857
0.0003908880132
0.0003938536318
0.0003738325756
0.0003452827805
0.0003485798799
0.000371032523
0.0003728610057
0.0003515708073
0.0003349005625
0.0003370540136
0.0003511656912
0.0003520511767
0.0003421271726
0.0003279008532
0.0003295561127
0.0003414374952
0.0003424925878
0.0003330850479
0.0003214130258
0.0003232590659
0.000332803877
0.0003336724414
0.0003262834534
0.0003152654346
0.000317291555
0.0003263460611
0.0003269908407
0.0003196598474
0.0003091048196
0.0003117518281
0.0003201337964
0.0003205144382
0.0003130533459
0.0003025859301
0.0003059750965
0.0003140651801
0.0003141774097
0.0003066633906
0.0002959606977
0.0003005437097
0.0003082910887
0.0003080052705
0.0003001405863
0.0002892187753
0.0003086139963
0.0003054239706
0.0003021213966
0.0002934842215
0.0002825915166
0.001828948115
0.0005797253702
0.0003426484484
0.000293608656
0.0002759006424
3.133357392e-08
2.414567593e-07
3.725612373e-06
5.562833966e-05
0.0007460022322
1.784830327e-07
1.216000155e-06
1.503990558e-05
0.000161099048
0.001279396704
6.264237632e-07
3.880508927e-06
4.002445203e-05
0.0003319292647
0.001840145115
1.748059183e-06
9.884804063e-06
8.741193224e-05
0.0005904979427
0.002512406809
4.336853944e-06
2.276775723e-05
0.0001746990025
0.0009598501523
0.003275855816
9.963948336e-06
4.883447659e-05
0.0003210614681
0.001433323065
0.004091704425
2.154345009e-05
9.78112189e-05
0.0005428986771
0.001993141901
0.004929957459
4.416425829e-05
0.0001832446961
0.0008529806421
0.002628311392
0.005792169824
8.6978803e-05
0.0003251325501
0.001261304331
0.003325156923
0.006664676583
0.0001653913737
0.0005468888654
0.001771185703
0.004081136796
0.007551631226
0.0003055693768
0.0008783071331
0.002385154895
0.004894059567
0.008453953067
0.000556906353
0.001342403026
0.003092350014
0.005762800282
0.009378761586
0.0009924227028
0.001956282213
0.003895117468
0.006688858604
0.01033689105
0.001620783913
0.002715490169
0.004789412488
0.007665935493
0.01131577378
0.002523940259
0.003664047826
0.005800908019
0.008708747527
0.01232455198
0.003674594293
0.004800729776
0.006942491637
0.009837443899
0.01338499795
0.005095465187
0.00617762804
0.00827188097
0.011099215
0.01453372795
0.006838984058
0.007839074837
0.009822843725
0.01253072165
0.01582562311
0.008776132124
0.009689444379
0.01154823584
0.01412724731
0.01728309512
0.01086162336
0.0116878119
0.01337514129
0.01570131025
0.01850186342
0.0129532102
0.01361013582
0.01492647925
0.01666921692
0.01864008945
0.01442949227
0.01478475554
0.01548882602
0.01638813459
0.01733829495
0.01419924142
0.01431974153
0.01454690888
0.01480925559
0.0150343849
0.01251310029
0.01251702694
0.01250528062
0.01245103802
0.01232708319
0.01018614306
0.01014916195
0.01005589834
0.009900408797
0.009678827126
0.007848397066
0.007806568487
0.007709027347
0.007556035487
0.007349375434
0.005965613993
0.005931302994
0.005851270288
0.005727528999
0.005563562265
0.004476171065
0.004450280743
0.004390331216
0.004298366519
0.004177569141
0.003329362757
0.00331080206
0.003267997941
0.00320256042
0.003116905504
0.002457916166
0.002445050381
0.002415413672
0.002370143918
0.002310937179
0.001801065716
0.001792379354
0.001772351077
0.001741728826
0.001701649658
0.001309705157
0.001303974007
0.001290719838
0.001270410115
0.001243784076
0.0009458472058
0.0009421439349
0.0009335421397
0.0009203204839
0.0009029490991
0.0006807121538
0.0006783652577
0.0006728841816
0.0006644291328
0.0006532935031
0.0004921301351
0.000490664533
0.0004872235128
0.0004818962175
0.0004748620368
0.0003621145099
0.0003612026639
0.0003590532129
0.0003557154953
0.0003512970765
0.0002755030334
0.0002749258483
0.0002735651313
0.0002714491417
0.0002686413334
0.0002196547897
0.0002192727871
0.0002183771676
0.0002169859426
0.0002151362815
0.0001845426741
0.0001842713618
0.0001836426888
0.0001826699526
0.0001813751034
0.0001627117878
0.0001625028492
0.0001620258795
0.000161292099
0.0001603148813
0.0001489743429
0.0001488014461
0.0001484123301
0.0001478171888
0.000147024641
0.0001399437514
0.000139793241
0.0001394581148
0.0001389478913
0.0001382685718
0.0001335409069
0.0001334058845
0.0001331073332
0.0001326541499
0.0001320508654
0.0001285642323
0.0001284412353
0.0001281703084
0.000127759732
0.0001272131678
0.0001243578765
0.0001242449981
0.0001239968519
0.0001236210876
0.0001231208028
0.0001205832379
0.0001204792969
0.000120250996
0.0001199053736
0.0001194451283
0.0001170743012
0.0001169784233
0.0001167678973
0.000116449181
0.0001160246579
0.0001137527013
0.0001136641661
0.0001134697677
0.000113175429
0.0001127832747
0.0001105833249
0.0001105014961
0.0001103218086
0.0001100496949
0.0001096870579
0.0001075497065
0.0001074740064
0.0001073077539
0.0001070559357
0.0001067202611
0.000104642893
0.0001045727852
0.0001044187969
0.0001041855115
0.0001038744658
0.0001018574814
0.0001017924889
0.0001016497169
0.0001014333873
0.0001011448854
9.918801941e-05
9.912769856e-05
9.899517505e-05
9.879434152e-05
9.852644844e-05
9.66291125e-05
9.657306039e-05
9.644990217e-05
9.626323462e-05
9.601418836e-05
9.41753109e-05
9.412316165e-05
9.400856997e-05
9.383486149e-05
9.360306133e-05
9.182158087e-05
9.177299861e-05
9.166623668e-05
9.150437747e-05
9.128835012e-05
8.95633903e-05
8.951806453e-05
8.941845364e-05
8.926741874e-05
8.906580717e-05
8.739617097e-05
8.73538149e-05
8.726072669e-05
8.7119569e-05
8.693111557e-05
8.53143001e-05
8.527465346e-05
8.518751831e-05
8.505537775e-05
8.48789408e-05
8.330990519e-05
8.327273878e-05
8.319105217e-05
8.306716504e-05
8.290172801e-05
8.137308032e-05
8.133820053e-05
8.126153519e-05
8.114525212e-05
8.098995176e-05
7.949285013e-05
7.94601017e-05
7.938811348e-05
7.927891338e-05
7.91330564e-05
7.766127052e-05
7.763054011e-05
7.756297759e-05
7.746047666e-05
7.732355041e-05
7.587446958e-05
7.584563798e-05
7.578223705e-05
7.568603371e-05
7.555750275e-05
7.413435834e-05
7.410732539e-05
7.404786854e-05
7.395763574e-05
7.383706633e-05
7.244478522e-05
7.24194312e-05
7.236365834e-05
7.227900655e-05
7.216588904e-05
7.081584125e-05
7.079204868e-05
7.073970619e-05
7.066025166e-05
7.055405819e-05
6.924937797e-05
6.922698387e-05
6.917771816e-05
6.910293294e-05
6.900297671e-05
6.777026624e-05
6.774915697e-05
6.770272238e-05
6.76322358e-05
6.753802064e-05
6.650506908e-05
6.648499768e-05
6.644084598e-05
6.63738235e-05
6.628423344e-05
0.002718148177
0.003480509306
0.004201172701
0.005150411431
0.006152280216
0.007101707474
0.007987473729
0.008876670852
0.009753713879
0.01062081881
0.01148659025
0.01237121309
0.01329065917
0.01421139022
0.01514399392
0.01611346735
0.01714918348
0.0183299163
0.01969073226
0.02058447889
0.01999672778
0.01793788635
0.01513924154
0.01220696342
0.009506337494
0.007193250357
0.005442292957
0.004088960424
0.003054358636
0.00226785862
0.001672603621
0.001224586812
0.0008905066426
0.0006453783169
0.0004698976645
0.000348190406
0.000266659626
0.000213811313
0.0001804234218
0.000159574161
0.0001464066848
0.0001377276216
0.0001315639207
0.0001267685324
0.000122712087
0.0001190682979
0.0001156766863
0.0001124616407
0.0001093895238
0.0001064447715
0.0001036191288
0.0001009079976
9.830643021e-05
9.580960073e-05
9.34125965e-05
9.111080392e-05
8.890006932e-05
8.6776157e-05
8.473383005e-05
8.276563472e-05
8.086218294e-05
7.901305637e-05
7.721091533e-05
7.545178462e-05
7.373791299e-05
7.207286421e-05
7.046672733e-05
6.892076609e-05
6.746051308e-05
6.621051597e-05
0.006669622923
0.02379693575
0.003437219891
0.0005805618368
0.0001685539333
0.007939065314
0.02147267128
0.01475377843
0.002247341994
0.0004900121825
0.008807611059
0.02004214789
0.03079933663
0.006030854517
0.001529282207
0.01028738416
0.02349668334
0.04699578455
0.01228835392
0.003349119677
0.01163248262
0.0246782253
0.04357657763
0.01931920491
0.005115462745
0.01263424172
0.02441857492
0.03870260378
0.02808336787
0.007824434782
0.01342005133
0.02415121896
0.03676471092
0.03791256494
0.01239296845
0.01422685398
0.02452354329
0.0372824837
0.04822775768
0.01881893201
0.01501294109
0.02489244235
0.03695566838
0.04843278667
0.02522970347
0.01575616401
0.0251126094
0.03618726909
0.04691861086
0.03198715232
0.01648292611
0.02537803324
0.03576028357
0.04620212199
0.03918827017
0.0172426913
0.02581321928
0.03584767584
0.04652256046
0.04701170197
0.01804589817
0.0263227008
0.03591822692
0.04617013719
0.05009614964
0.01882960892
0.02674372813
0.0357353301
0.04514340941
0.04990642318
0.01960095392
0.02712249247
0.0355291826
0.04427886989
0.04969216636
0.02039811736
0.02755180253
0.03549116389
0.04382852846
0.05000171244
0.02123568423
0.02801529611
0.03554029127
0.04357878802
0.05027784195
0.02221945978
0.02868762067
0.03588732575
0.0435928205
0.04980650401
0.02341762672
0.02972172063
0.03683472378
0.04444156698
0.04941853359
0.02377648703
0.02891585553
0.03445968463
0.04096668938
0.04702192109
0.02206015693
0.0247552352
0.02664408049
0.02734384578
0.02601455082
0.01888390724
0.0196607505
0.01951396875
0.01830725747
0.01603708662
0.0153729057
0.01516983622
0.01432004802
0.01288361823
0.01101593228
0.01211331671
0.01157869719
0.01066437199
0.009456747164
0.008081654025
0.009325974479
0.008786190005
0.008017881338
0.007096162594
0.006102647503
0.007020436627
0.006579672115
0.005998406945
0.005331239915
0.00463049145
0.005306783386
0.004976156721
0.004552016026
0.004073146669
0.003574254079
0.003989970511
0.003751945181
0.003449298648
0.003109056177
0.002754556138
0.002985033307
0.002817913135
0.002605151138
0.002365398451
0.002114502843
0.002220831898
0.002105825474
0.001958249111
0.001790871749
0.001614483671
0.001641632254
0.001563977847
0.00146302126
0.001347430327
0.001224534516
0.001204789282
0.001153334908
0.001085261169
0.001006406048
0.0009217236507
0.0008782315262
0.0008447781251
0.0007995754522
0.000746523057
0.0006889440922
0.0006379766629
0.0006166163494
0.000587071648
0.0005519156588
0.0005133492158
0.0004655047011
0.0004520435065
0.0004329927726
0.0004100185083
0.000384550125
0.0003455466425
0.0003370653984
0.0003248479275
0.0003099462896
0.0002932659476
0.0002649660257
0.000259502888
0.0002515869926
0.0002418643946
0.0002308933235
0.0002125997278
0.0002088991898
0.0002036017936
0.000197093826
0.0001897110536
0.0001794443937
0.0001767467862
0.0001730010403
0.0001684331343
0.0001632414937
0.00015870894
0.0001565800297
0.0001537419603
0.0001503255298
0.0001464474924
0.0001456066139
0.0001438113537
0.0001415101346
0.0001387792704
0.0001356887271
0.0001369769015
0.0001353939514
0.0001334249021
0.0001311158854
0.0001285106743
0.0001308595046
0.000129428187
0.000127681814
0.0001256501778
0.0001233627231
0.0001261105002
0.0001247999164
0.0001232181246
0.0001213860784
0.0001193253233
0.0001221001438
0.0001208932588
0.0001194443516
0.0001177694647
0.0001158855658
0.0001185009919
0.0001173868104
0.0001160519836
0.0001145096461
0.0001127739342
0.0001151515965
0.0001141216618
0.0001128882738
0.0001114627102
0.0001098571681
0.0001119758898
0.0001110231001
0.0001098817156
0.00010856152
0.0001070732205
0.0001089400841
0.0001080579811
0.0001070005358
0.0001057763757
0.0001043949405
0.0001060286433
0.0001052112713
0.0001042306342
0.0001030943828
0.0001018109491
0.0001032334783
0.0001024753787
0.0001015651671
0.0001005096519
9.931632707e-05
0.000100550235
9.98464385e-05
9.900081502e-05
9.801942108e-05
9.690892483e-05
9.797415107e-05
9.732005847e-05
9.653363476e-05
9.562027029e-05
9.458590679e-05
9.550061863e-05
9.489203363e-05
9.415988445e-05
9.330897079e-05
9.234458732e-05
9.312492756e-05
9.255802989e-05
9.187565396e-05
9.108207725e-05
9.018202195e-05
9.084262176e-05
9.031389095e-05
8.967714039e-05
8.893618729e-05
8.809525194e-05
8.864968448e-05
8.815587334e-05
8.756092953e-05
8.686826171e-05
8.608164403e-05
8.654200468e-05
8.608009906e-05
8.552341005e-05
8.487498534e-05
8.413820819e-05
8.451450219e-05
8.408176758e-05
8.356009255e-05
8.295220931e-05
8.226114111e-05
8.255990221e-05
8.215390573e-05
8.16643222e-05
8.10935974e-05
8.044446325e-05
8.066904085e-05
8.028775316e-05
7.982778641e-05
7.929136923e-05
7.868098403e-05
7.883172581e-05
7.847351299e-05
7.80411618e-05
7.75367145e-05
7.696244028e-05
7.704082849e-05
7.670447193e-05
7.629818585e-05
7.582383537e-05
7.528350558e-05
7.529229334e-05
7.497652442e-05
7.459478464e-05
7.414882324e-05
7.364055767e-05
7.35884573e-05
7.329222075e-05
7.293379827e-05
7.251481601e-05
7.203704985e-05
7.193274075e-05
7.165473651e-05
7.131814594e-05
7.092448042e-05
7.047531686e-05
7.033520516e-05
7.007414555e-05
6.975792597e-05
6.938788297e-05
6.896548967e-05
6.879692718e-05
6.855111745e-05
6.825331964e-05
6.790477257e-05
6.75068085e-05
6.734368771e-05
6.711189163e-05
6.683110904e-05
6.650245581e-05
6.612713195e-05
6.609936432e-05
6.58788371e-05
6.561173089e-05
6.529907734e-05
6.494199042e-05
2.051158103e-05
2.698879879e-06
4.6207421e-07
1.302354314e-07
5.682065539e-08
3.079661046e-08
1.903596991e-08
1.346328341e-08
1.087065154e-08
9.70706649e-09
9.202722394e-09
8.988655637e-09
8.897897956e-09
8.858608237e-09
8.841381397e-09
8.835643668e-09
8.831071578e-09
8.825653178e-09
8.823483204e-09
8.822242152e-09
8.821066226e-09
8.819859965e-09
8.81865979e-09
8.817515602e-09
8.816448905e-09
8.815467247e-09
8.814570126e-09
8.813752121e-09
8.812991582e-09
8.812280223e-09
8.811623778e-09
8.811023364e-09
8.810467564e-09
8.809951892e-09
8.809469638e-09
8.809031165e-09
8.808642391e-09
8.808286814e-09
8.807960545e-09
8.807664283e-09
8.80739357e-09
8.807140538e-09
8.806903567e-09
8.806670794e-09
8.806461283e-09
8.806302138e-09
8.806180529e-09
8.806083904e-09
8.805994858e-09
8.80592861e-09
8.805872028e-09
8.80583677e-09
8.805804148e-09
8.805765508e-09
8.805449118e-09
8.802736674e-09
8.784860515e-09
8.700004993e-09
8.398461512e-09
8.005403905e-09
9.711135684e-05
1.443263676e-05
1.919851559e-06
4.001614022e-07
1.459611951e-07
7.429103364e-08
4.563269504e-08
3.208355601e-08
2.535236261e-08
2.202514622e-08
2.041695628e-08
1.965427921e-08
1.929590917e-08
1.912611647e-08
1.904418821e-08
1.900608362e-08
1.898538219e-08
1.897196634e-08
1.896652181e-08
1.896339274e-08
1.896048401e-08
1.895732655e-08
1.89542351e-08
1.895142874e-08
1.894890059e-08
1.894665279e-08
1.894462458e-08
1.894273617e-08
1.894098419e-08
1.893949008e-08
1.893829203e-08
1.893730694e-08
1.893638728e-08
1.893551221e-08
1.893474268e-08
1.89341708e-08
1.893383493e-08
1.893342697e-08
1.893298614e-08
1.893270893e-08
1.893260636e-08
1.89325172e-08
1.893242746e-08
1.893238677e-08
1.893229839e-08
1.893229115e-08
1.893236201e-08
1.8932555e-08
1.893262461e-08
1.89328784e-08
1.893306562e-08
1.893339262e-08
1.893362001e-08
1.893387332e-08
1.893354214e-08
1.893042175e-08
1.891496225e-08
1.886561433e-08
1.878971642e-08
1.877176578e-08
0.000355918811
4.949771578e-05
4.618312127e-06
7.144588094e-07
2.22297473e-07
1.079355833e-07
6.691905585e-08
4.805716846e-08
3.825000334e-08
3.299415249e-08
3.01874778e-08
2.870942743e-08
2.794158928e-08
2.754444384e-08
2.73375625e-08
2.722942431e-08
2.717534022e-08
2.715151395e-08
2.714193136e-08
2.713667522e-08
2.713187489e-08
2.712665611e-08
2.712138373e-08
2.711650541e-08
2.711215056e-08
2.710825334e-08
2.710480258e-08
2.710180511e-08
2.709919459e-08
2.709691397e-08
2.709497906e-08
2.709338461e-08
2.709206869e-08
2.709109558e-08
2.709030453e-08
2.708974252e-08
2.708950713e-08
2.708925536e-08
2.708900383e-08
2.708890935e-08
2.708902838e-08
2.708918181e-08
2.708944159e-08
2.708990991e-08
2.709041705e-08
2.709097901e-08
2.709157235e-08
2.709232762e-08
2.709293173e-08
2.709381508e-08
2.709461207e-08
2.709562391e-08
2.709647229e-08
2.709755602e-08
2.70981673e-08
2.709862164e-08
2.709976711e-08
2.711982819e-08
2.723976452e-08
2.741640496e-08
0.001162204692
0.0002655996953
2.740830564e-05
2.168068875e-06
3.93668634e-07
1.513084338e-07
8.711474392e-08
6.114524354e-08
4.819825811e-08
4.118241107e-08
3.72579081e-08
3.504823698e-08
3.380979374e-08
3.312033327e-08
3.273827542e-08
3.252739053e-08
3.242415959e-08
3.238683028e-08
3.237408261e-08
3.2369453e-08
3.236615784e-08
3.236251124e-08
3.235866216e-08
3.235502535e-08
3.235182946e-08
3.234909517e-08
3.234676066e-08
3.234482556e-08
3.234324374e-08
3.234197485e-08
3.234100509e-08
3.234032834e-08
3.233991827e-08
3.233982441e-08
3.23399187e-08
3.234022978e-08
3.234081994e-08
3.234140675e-08
3.234200509e-08
3.234270271e-08
3.234352803e-08
3.234440239e-08
3.234536943e-08
3.234648873e-08
3.234768524e-08
3.234893755e-08
3.235018653e-08
3.235154161e-08
3.235278642e-08
3.23542516e-08
3.235566923e-08
3.235727047e-08
3.235867584e-08
3.236045893e-08
3.236230581e-08
3.236663075e-08
3.23804671e-08
3.2435365e-08
3.260117777e-08
3.278670268e-08
0.002133865587
0.0007093114066
0.0001446010181
1.38566346e-05
1.496526731e-06
3.450322635e-07
1.441346439e-07
8.424309283e-08
5.983533762e-08
4.825272361e-08
4.229292534e-08
3.907474099e-08
3.728684111e-08
3.627091248e-08
3.568820295e-08
3.535502445e-08
3.518899994e-08
3.512906853e-08
3.510924114e-08
3.510472307e-08
3.510440777e-08
3.510463731e-08
3.510473814e-08
3.510480653e-08
3.51049933e-08
3.510534236e-08
3.510583552e-08
3.510647539e-08
3.51072435e-08
3.510812802e-08
3.510912875e-08
3.511023475e-08
3.511144808e-08
3.511280399e-08
3.511423504e-08
3.511575726e-08
3.511739029e-08
3.511899194e-08
3.512056515e-08
3.512216125e-08
3.512379102e-08
3.512541056e-08
3.512705315e-08
3.512874408e-08
3.513045677e-08
3.513218935e-08
3.513390725e-08
3.513564454e-08
3.513730832e-08
3.513907865e-08
3.514082092e-08
3.51426637e-08
3.514439021e-08
3.514645994e-08
3.514902403e-08
3.515487858e-08
3.517147676e-08
3.52232584e-08
3.534639027e-08
3.546688118e-08
0.0030919998
0.001388396979
0.0004635816503
8.780664345e-05
8.58677124e-06
1.207721072e-06
3.286707044e-07
1.411146564e-07
8.107787557e-08
5.732948522e-08
4.684186776e-08
4.185039025e-08
3.930746155e-08
3.792726859e-08
3.7141362e-08
3.668466545e-08
3.644755723e-08
3.635199124e-08
3.63154257e-08
3.630533043e-08
3.630516205e-08
3.630803159e-08
3.631158229e-08
3.631515235e-08
3.631860484e-08
3.632189387e-08
3.632504154e-08
3.632807414e-08
3.633099614e-08
3.633381901e-08
3.633656113e-08
3.633922573e-08
3.63418275e-08
3.634439229e-08
3.634690155e-08
3.634936808e-08
3.635180052e-08
3.635415422e-08
3.635643627e-08
3.63586719e-08
3.636086766e-08
3.636300065e-08
3.636509221e-08
3.636714737e-08
3.63691549e-08
3.637113229e-08
3.637307665e-08
3.637499569e-08
3.637684563e-08
3.637869903e-08
3.638050586e-08
3.638234543e-08
3.638413473e-08
3.638619693e-08
3.638892053e-08
3.639450182e-08
3.640825313e-08
3.644365548e-08
3.651348865e-08
3.657494402e-08
0.003892794747
0.002012674322
0.0009365768664
0.0003160738166
5.143058473e-05
5.196899254e-06
9.034531823e-07
2.799921881e-07
1.256942847e-07
7.355020796e-08
5.326108211e-08
4.47177073e-08
4.084844525e-08
3.893751828e-08
3.79064331e-08
3.731322844e-08
3.69939637e-08
3.684932066e-08
3.678465377e-08
3.676077316e-08
3.675554871e-08
3.675797368e-08
3.676314108e-08
3.676901135e-08
3.677479925e-08
3.678024467e-08
3.678531864e-08
3.679004921e-08
3.679447507e-08
3.679863352e-08
3.680255185e-08
3.680625561e-08
3.68097723e-08
3.681312552e-08
3.681632552e-08
3.681938917e-08
3.682232821e-08
3.682514071e-08
3.68278372e-08
3.683043229e-08
3.683293435e-08
3.683533887e-08
3.683765996e-08
3.683990083e-08
3.684205881e-08
3.684414563e-08
3.684616518e-08
3.684812984e-08
3.685002646e-08
3.685187625e-08
3.685366551e-08
3.685544417e-08
3.685721056e-08
3.685921362e-08
3.686190504e-08
3.68668576e-08
3.687731124e-08
3.689936297e-08
3.693561903e-08
3.696397571e-08
0.00503914623
0.002548857927
0.001449077914
0.000701312176
0.0002124689411
2.602644129e-05
2.962364617e-06
6.405840033e-07
2.215658896e-07
1.047789572e-07
6.433587981e-08
4.892075463e-08
4.263849004e-08
3.984657899e-08
3.845833004e-08
3.769208011e-08
3.727468316e-08
3.706938526e-08
3.696670857e-08
3.692085576e-08
3.690460712e-08
3.690271359e-08
3.69071589e-08
3.691393432e-08
3.692116402e-08
3.692809073e-08
3.693450355e-08
3.694040221e-08
3.694584397e-08
3.695088661e-08
3.695557531e-08
3.695995119e-08
3.696405133e-08
3.69679072e-08
3.697154405e-08
3.697498441e-08
3.697824683e-08
3.698134458e-08
3.69842918e-08
3.698710187e-08
3.698978568e-08
3.699234816e-08
3.699480027e-08
3.699714973e-08
3.699940124e-08
3.700156154e-08
3.700363256e-08
3.700562448e-08
3.700753946e-08
3.700938822e-08
3.701117474e-08
3.701293635e-08
3.70147176e-08
3.701674581e-08
3.701949293e-08
3.702416589e-08
3.703274693e-08
3.704778987e-08
3.706854377e-08
3.708232514e-08
0.006987520387
0.002985962529
0.001868148652
0.001122335304
0.000541237143
0.0001193905944
1.159975279e-05
1.673699924e-06
4.376914041e-07
1.656966569e-07
8.38028023e-08
5.559651917e-08
4.516156313e-08
4.096166554e-08
3.90455637e-08
3.804276458e-08
3.74978521e-08
3.721540143e-08
3.706389838e-08
3.698799393e-08
3.695458294e-08
3.694406984e-08
3.694510084e-08
3.695126344e-08
3.695913437e-08
3.696709536e-08
3.697454282e-08
3.698135462e-08
3.698757942e-08
3.699329455e-08
3.699856436e-08
3.700344382e-08
3.700797858e-08
3.70122095e-08
3.70161714e-08
3.701989363e-08
3.70234009e-08
3.70267132e-08
3.702984853e-08
3.70328221e-08
3.703564748e-08
3.703833461e-08
3.704089456e-08
3.704333646e-08
3.704566852e-08
3.704789864e-08
3.70500312e-08
3.705207329e-08
3.705402977e-08
3.705591001e-08
3.70577278e-08
3.705952349e-08
3.706137463e-08
3.706351901e-08
3.706646101e-08
3.707122504e-08
3.707916747e-08
3.709139687e-08
3.71061503e-08
3.711409122e-08
0.01013004543
0.003506358387
0.00223314531
0.001487778881
0.0008876466538
0.0003443984641
4.70125911e-05
4.644585275e-06
8.942500382e-07
2.734635205e-07
1.147932247e-07
6.545730234e-08
4.867462232e-08
4.244368272e-08
3.979640082e-08
3.847341248e-08
3.775771918e-08
3.737301902e-08
3.71570199e-08
3.704064336e-08
3.698281862e-08
3.695865216e-08
3.695298925e-08
3.695662749e-08
3.696417019e-08
3.697273918e-08
3.698104909e-08
3.698868936e-08
3.699563134e-08
3.700195693e-08
3.700775146e-08
3.701308442e-08
3.701801163e-08
3.702258224e-08
3.702683875e-08
3.703081761e-08
3.703454912e-08
3.703805866e-08
3.704136785e-08
3.704449499e-08
3.704745623e-08
3.705026487e-08
3.705293333e-08
3.705547227e-08
3.705789088e-08
3.706019782e-08
3.706239997e-08
3.706450516e-08
3.70665203e-08
3.706845542e-08
3.707032923e-08
3.70721912e-08
3.707414777e-08
3.707646924e-08
3.70796967e-08
3.708475478e-08
3.709268147e-08
3.710396078e-08
3.711645229e-08
3.712177384e-08
0.01447752395
0.004453590086
0.00257318978
0.001855675008
0.0012404105
0.0006378833555
0.000138326182
1.345429316e-05
1.87853183e-06
4.543221422e-07
1.587920676e-07
7.808180208e-08
5.297929535e-08
4.427626459e-08
4.075287745e-08
3.903463304e-08
3.809994158e-08
3.75812304e-08
3.727966154e-08
3.710881521e-08
3.701717935e-08
3.697300972e-08
3.695645766e-08
3.695499366e-08
3.696081429e-08
3.696936793e-08
3.697833293e-08
3.698676671e-08
3.699443616e-08
3.700138211e-08
3.700770481e-08
3.701349231e-08
3.701881337e-08
3.70237252e-08
3.702827759e-08
3.703251365e-08
3.703646989e-08
3.704017682e-08
3.704366024e-08
3.704694185e-08
3.705004054e-08
3.705297216e-08
3.705575075e-08
3.705838859e-08
3.706089607e-08
3.706328319e-08
3.706555807e-08
3.706772955e-08
3.706980706e-08
3.707180422e-08
3.707374589e-08
3.707569423e-08
3.707778324e-08
3.708032063e-08
3.708387478e-08
3.708929652e-08
3.709741579e-08
3.710836494e-08
3.711979747e-08
3.712347856e-08
0.01997786551
0.006026501591
0.002912369146
0.00224082618
0.001601641321
0.0009428340542
0.0003078712181
3.646780178e-05
4.202014098e-06
7.739924544e-07
2.202602704e-07
9.327189426e-08
5.788158102e-08
4.641755468e-08
4.192532751e-08
3.974780242e-08
3.854660858e-08
3.78596148e-08
3.744813573e-08
3.72060264e-08
3.706908685e-08
3.699709326e-08
3.696439821e-08
3.695444123e-08
3.695654399e-08
3.696407697e-08
3.697330287e-08
3.698244097e-08
3.699085816e-08
3.69984619e-08
3.700534008e-08
3.70116004e-08
3.701732944e-08
3.702259457e-08
3.702745299e-08
3.70319543e-08
3.703614145e-08
3.70400504e-08
3.704371161e-08
3.704715051e-08
3.705038884e-08
3.705344497e-08
3.705633478e-08
3.70590722e-08
3.706166931e-08
3.706413759e-08
3.706648641e-08
3.706872597e-08
3.707086778e-08
3.707292982e-08
3.707494562e-08
3.70769937e-08
3.707923715e-08
3.708201671e-08
3.708590847e-08
3.709169278e-08
3.710002872e-08
3.711079231e-08
3.712150324e-08
3.712379166e-08
0.02567307502
0.008348058242
0.003429187696
0.00270487567
0.002029557519
0.001277788551
0.0005187245528
8.922489057e-05
9.02510563e-06
1.326414298e-06
3.000817342e-07
1.091674041e-07
6.277645642e-08
4.872074894e-08
4.327882373e-08
4.060460074e-08
3.909778e-08
3.821214113e-08
3.766819877e-08
3.733803292e-08
3.714378516e-08
3.703549055e-08
3.698074674e-08
3.695827913e-08
3.695408589e-08
3.695911928e-08
3.696789985e-08
3.697749535e-08
3.698662657e-08
3.699492005e-08
3.700238797e-08
3.700914461e-08
3.701529778e-08
3.702092954e-08
3.702610556e-08
3.703088194e-08
3.70353078e-08
3.703942488e-08
3.704326839e-08
3.704686791e-08
3.705024818e-08
3.705343029e-08
3.705643217e-08
3.705926976e-08
3.706195692e-08
3.706450655e-08
3.706692942e-08
3.706923745e-08
3.707144465e-08
3.707357485e-08
3.707567205e-08
3.707783208e-08
3.70802467e-08
3.708328343e-08
3.708750838e-08
3.709362633e-08
3.710214098e-08
3.711272015e-08
3.712279329e-08
3.712366011e-08
0.03133269576
0.01144858327
0.004273024913
0.003188496653
0.002535102038
0.001652798481
0.0007606332554
0.0001815532218
1.816183868e-05
2.284203064e-06
4.140436891e-07
1.283535039e-07
6.830328376e-08
5.134179403e-08
4.484107809e-08
4.160273212e-08
3.974737282e-08
3.863465018e-08
3.793797661e-08
3.750500121e-08
3.724254058e-08
3.709000993e-08
3.700745381e-08
3.696834314e-08
3.69549783e-08
3.695565495e-08
3.696294126e-08
3.697251299e-08
3.698220393e-08
3.699117486e-08
3.699925765e-08
3.700653332e-08
3.701312519e-08
3.701913397e-08
3.702463642e-08
3.702969559e-08
3.703436645e-08
3.703869647e-08
3.704272581e-08
3.704648826e-08
3.705001192e-08
3.705332082e-08
3.705643534e-08
3.705937351e-08
3.706215086e-08
3.706478166e-08
3.70672784e-08
3.70696551e-08
3.707192919e-08
3.707413182e-08
3.707631901e-08
3.707860399e-08
3.708120432e-08
3.70845055e-08
3.708905223e-08
3.709546785e-08
3.710411078e-08
3.711447737e-08
3.712392812e-08
3.71232716e-08
0.03721679828
0.01539367669
0.005655517318
0.003756557488
0.00312533989
0.002024554307
0.0009746340639
0.0003027381149
3.716795868e-05
4.355623759e-06
6.068091118e-07
1.52993961e-07
7.477823158e-08
5.443711592e-08
4.667604342e-08
4.276128195e-08
4.049789364e-08
3.912411209e-08
3.825399271e-08
3.770439414e-08
3.73641977e-08
3.716048546e-08
3.704505613e-08
3.698556829e-08
3.696026163e-08
3.695459698e-08
3.695909311e-08
3.696791473e-08
3.697783914e-08
3.698738475e-08
3.69960716e-08
3.700387717e-08
3.701091683e-08
3.701730829e-08
3.702314194e-08
3.702848849e-08
3.703340828e-08
3.703795401e-08
3.704217092e-08
3.704609719e-08
3.704976461e-08
3.705320032e-08
3.705642734e-08
3.70594657e-08
3.706233266e-08
3.706504397e-08
3.706761434e-08
3.707006045e-08
3.707240412e-08
3.707468494e-08
3.707697208e-08
3.707939601e-08
3.708219526e-08
3.708576286e-08
3.709061505e-08
3.709729104e-08
3.7106014e-08
3.711614163e-08
3.712498369e-08
3.71228462e-08
0.04328775851
0.01998119575
0.007526633602
0.004601463034
0.003797556488
0.002316619269
0.001097232911
0.0003961284602
6.851742159e-05