/*--------------------------------*- C++ -*----------------------------------*\
  =========                 |
  \\      /  F ield         | OpenFOAM: The Open Source CFD Toolbox
   \\    /   O peration     | Website:  https://openfoam.org
    \\  /    A nd           | Version:  10
     \\/     M anipulation  |
\*---------------------------------------------------------------------------*/
FoamFile
{
    format      ascii;
    class       volScalarField;
    location    "0.0250188088";
    object      CO2;
}
// * * * * * * * * * * * * * * * * * * * * * * * * * * * * * * * * * * * * * //

dimensions      [0 0 0 0 0 0 0];

internalField   nonuniform List<scalar> 
5170
(
3.17227558e-12
3.167177618e-12
3.13257663e-12
2.886551498e-12
2.115487976e-13
6.204751397e-12
6.188845168e-12
6.115119758e-12
5.738560817e-12
3.598145302e-12
9.217192059e-12
9.190581278e-12
9.083085525e-12
8.63217778e-12
6.859534303e-12
1.219477356e-11
1.215889306e-11
1.202680512e-11
1.154805067e-11
1.013526893e-11
1.512711593e-11
1.508378244e-11
1.493693939e-11
1.446713055e-11
1.341432748e-11
1.801215292e-11
1.796450568e-11
1.781299707e-11
1.738380184e-11
1.668744932e-11
2.085385658e-11
2.080431768e-11
2.065765648e-11
2.030010784e-11
1.99542653e-11
2.366037191e-11
2.361217215e-11
2.347883197e-11
2.321867626e-11
2.321885461e-11
2.643894815e-11
2.639502726e-11
2.628450907e-11
2.614510812e-11
2.648681793e-11
2.919704857e-11
2.91593329e-11
2.907820605e-11
2.908593002e-11
2.976443906e-11
3.193960569e-11
3.190998912e-11
3.186334692e-11
3.204539328e-11
3.305510013e-11
3.466849132e-11
3.46496171e-11
3.464871196e-11
3.502439327e-11
3.635760558e-11
3.738508526e-11
3.737980827e-11
3.743865937e-11
3.802381826e-11
3.966942019e-11
4.009049412e-11
4.010170174e-11
4.023277636e-11
4.104345439e-11
4.298695523e-11
4.278454861e-11
4.281564578e-11
4.303035595e-11
4.408069834e-11
4.630472515e-11
4.546583113e-11
4.552069633e-11
4.583433865e-11
4.713429205e-11
4.961248172e-11
4.81332973e-11
4.821659368e-11
4.864252368e-11
5.02119642e-11
5.297179535e-11
5.085286148e-11
5.111659744e-11
5.270683285e-11
6.233329462e-11
9.090509823e-11
7.783226042e-11
1.516096697e-10
7.170751058e-10
4.880468326e-09
1.964475132e-08
7.317133759e-09
4.06289757e-08
3.253487345e-07
2.305025782e-06
1.119554526e-05
0.1123607949
0.1123609501
0.1123626566
0.1123612994
0.1123606311
0.1138294631
0.1136588093
0.1136612984
0.1136841553
0.1139008946
0.1145992493
0.1144062401
0.1144058936
0.1144736783
0.1147199715
0.1150418349
0.1148601342
0.1148541703
0.1149478127
0.1151552447
0.1153143105
0.115154488
0.115149637
0.115241424
0.115430019
0.1154679975
0.1153463846
0.1153345077
0.1154273416
0.1155782435
0.1155986784
0.1154734432
0.1154651714
0.1155434214
0.115665556
0.1156734285
0.115586193
0.1155750363
0.1156261981
0.1157466414
0.1157427692
0.1156568084
0.1156476101
0.1157113282
0.1158267573
0.1158126074
0.1157302145
0.1157218921
0.1157853127
0.1158752092
0.1158604822
0.1157955781
0.1157882948
0.1158487651
0.1159136345
0.1158991132
0.1158524925
0.115847583
0.115887842
0.1159449708
0.1159301253
0.1158893793
0.1158852235
0.1159229939
0.115974934
0.1159593039
0.1159218649
0.1159186287
0.1159526376
0.1160028874
0.1159872741
0.1159496167
0.1159471825
0.115980685
0.1160283806
0.1160130041
0.1159764105
0.1159748153
0.1160077752
0.1160521011
0.1160366542
0.1160025696
0.1160018272
0.1160329218
0.1160735079
0.1160569942
0.1160269451
0.1160273436
0.116056174
0.1160919959
0.1160738072
0.1160494383
0.1160504957
0.1160743147
0.1161008861
0.1161737794
0.1161030958
0.1159902682
0.115867098
0.1155930447
2.745350119e-07
2.143365581e-06
3.30987522e-05
0.000493779629
0.006623408983
1.503316619e-06
1.016138976e-05
0.0001238619514
0.00129590456
0.009849672609
4.971923198e-06
3.015232354e-05
0.0003015193677
0.002383556077
0.01215577206
1.288971761e-05
7.036381235e-05
0.0005915165774
0.003698018773
0.01388195245
2.927461488e-05
0.0001460139791
0.001043412302
0.005172813408
0.01517762827
6.095990671e-05
0.0002797745765
0.001685874653
0.0066808373
0.01628996314
0.0001188649852
0.0005000371811
0.002518294904
0.008150925548
0.01735142713
0.000219483224
0.0008384338358
0.003522546165
0.00957129947
0.01838894147
0.0003894556241
0.001336587602
0.004675844227
0.01093302761
0.01937592792
0.0006690099367
0.002032103258
0.005948986886
0.01227013095
0.02036386468
0.001120616161
0.002968638977
0.007328133362
0.01361404892
0.02138681435
0.001857094947
0.004160450988
0.008782976626
0.01498750397
0.02245447119
0.003025184581
0.005606832388
0.01032496505
0.01640445795
0.02357514173
0.004573506536
0.007267768343
0.01195679815
0.01786624297
0.02473638095
0.006624904357
0.009213329014
0.01373253707
0.01941015962
0.02596841597
0.009048369561
0.01142038757
0.01568512096
0.0210882704
0.02731938623
0.01183825214
0.01396591689
0.01791363579
0.02298059534
0.02884364287
0.01505756062
0.01690666197
0.02046673321
0.02514571905
0.0306283661
0.01846396959
0.02006865248
0.02326733555
0.02758145909
0.0327052417
0.02202822178
0.02342770051
0.02624705256
0.03005823536
0.03454871649
0.02560227639
0.02669475908
0.02886693389
0.03170974268
0.03488443325
0.02823215341
0.02881962784
0.02998006375
0.03145371522
0.03300017138
0.02806954398
0.02826641834
0.02863687791
0.02906104155
0.02941756862
0.02540922913
0.02540872594
0.02537437646
0.02526105645
0.02502198841
0.02154224585
0.02146994531
0.02129151065
0.02099727483
0.0205801775
0.01754742978
0.01746559367
0.01727642742
0.01698097772
0.01658213765
0.01425749142
0.01418816305
0.01402817569
0.01378175584
0.01345511169
0.01162382428
0.01156943613
0.01144493478
0.01125467266
0.01100451588
0.009585251689
0.00954424606
0.009450923671
0.009308871409
0.009122665407
0.008034608534
0.008004208807
0.007935312782
0.007830634939
0.007693475679
0.006866006998
0.006843520159
0.006792734477
0.006715622399
0.006614466703
0.005988733928
0.005971928922
0.005934094057
0.005876652008
0.005801150006
0.005329070158
0.00531623976
0.005287450375
0.00524374129
0.005186158275
0.0048295633
0.004819480732
0.004796937734
0.004762718881
0.004717539724
0.004447044885
0.004438864675
0.004420644132
0.004392999284
0.00435643115
0.00414966356
0.004142819626
0.004127630079
0.004104599277
0.004074089612
0.003913867909
0.00390798638
0.003894975043
0.003875261345
0.003849117289
0.003722155045
0.003716992519
0.00370560155
0.003688354404
0.003665463254
0.003561619473
0.003557017351
0.003546883086
0.003531546551
0.003511179078
0.003422987311
0.003418841453
0.003409724244
0.003395931192
0.003377604704
0.003299831187
0.003296070506
0.003287807561
0.003275308612
0.003258694569
0.003187871541
0.003184445069
0.003176920039
0.003165537262
0.003150401007
0.00308434969
0.003081218231
0.003074342784
0.00306394156
0.003050105417
0.002987519959
0.002984651763
0.002978354731
0.002968827013
0.002956148383
0.002896269141
0.002893637195
0.002887858785
0.002879114113
0.002867473573
0.002809861139
0.002807442062
0.002802130589
0.002794090928
0.002783385471
0.002727779855
0.002725553039
0.002720663274
0.002713260424
0.002703399968
0.002649639971
0.002647587209
0.002643079143
0.002636252821
0.002627157728
0.00257513419
0.002573239266
0.002569077398
0.002562774103
0.00255437363
0.002504001804
0.002502250278
0.002498402909
0.002492574876
0.002484805856
0.002436006175
0.002434384984
0.002430823682
0.002425428116
0.002418233935
0.00237097452
0.002369472209
0.002366171593
0.002361170125
0.002354499932
0.00230870016
0.002307306206
0.002304243363
0.002299601477
0.002293409555
0.002249013662
0.002247718707
0.002244873107
0.002240559836
0.002234805147
0.002191759621
0.002190555255
0.002187908491
0.002183896053
0.002178541749
0.002136796455
0.002135675109
0.002133210571
0.0021294739
0.00212448673
0.002083995616
0.002082950456
0.002080653185
0.00207716969
0.002072519667
0.002033238389
0.00203226322
0.002030119621
0.002026868771
0.002022528642
0.001984415743
0.00198350497
0.001981502787
0.00197846607
0.001974411239
0.001937422553
0.001936571062
0.00193469907
0.001931859524
0.001928067456
0.001892164088
0.001891367282
0.001889615408
0.001886957806
0.00188340826
0.001848543278
0.00184779689
0.001846155764
0.001843665938
0.001840340076
0.001806483167
0.001805783402
0.001804244706
0.00180191008
0.001798791175
0.001765893176
0.001765236449
0.001763792301
0.00176160095
0.001758673135
0.001726723598
0.001726106842
0.001724750532
0.00172269231
0.001719942085
0.001688866828
0.001688287026
0.001687011905
0.001685076741
0.001682490693
0.001652326435
0.001651781164
0.001650581948
0.00164876186
0.001646329377
0.001616989224
0.00161647574
0.001615346364
0.001613632163
0.001611341009
0.001583408164
0.001582924371
0.00158186031
0.001580245179
0.001578086277
0.001554562371
0.001554102702
0.001553091619
0.001551556791
0.001549505042
0.02423857145
0.02433602207
0.02434603483
0.02432683855
0.02434191173
0.02456967345
0.02498251232
0.02548427613
0.02599777309
0.02658556216
0.02727421561
0.02804305582
0.02889190895
0.0297864713
0.03076384672
0.03186337222
0.03311840814
0.03465437416
0.03650271542
0.03781426798
0.03704027283
0.03396584341
0.02957251728
0.02479061209
0.02025095815
0.01627640943
0.01320928007
0.01081713672
0.008983087412
0.007590259802
0.006537865773
0.005743509436
0.005141778505
0.004682363647
0.004327668844
0.00404986538
0.003828189245
0.003647017775
0.003494684244
0.003362708282
0.003245155149
0.003138043738
0.003038795343
0.002945775086
0.002857943067
0.002774615766
0.002695318788
0.00261970086
0.002547483837
0.002478431922
0.002412329839
0.002349024438
0.002288325413
0.002230078936
0.002174143437
0.002120389193
0.002068698433
0.002018961449
0.001971077993
0.001924949733
0.001880489514
0.001837604897
0.001796225876
0.001756264721
0.001717679501
0.001680362955
0.001644327799
0.001609455589
0.001576309517
0.001547816276
0.05979809929
0.1082864024
0.1127958128
0.1030743491
0.07600191867
0.05017195045
0.0867615003
0.1131529935
0.09704339986
0.06041257409
0.04552575349
0.07575811918
0.1054731859
0.0977218563
0.05642027546
0.04222553001
0.06755727186
0.09097896016
0.1012828544
0.06550277216
0.03992143032
0.06255347803
0.08553838189
0.1045952631
0.07924596437
0.03850518334
0.05950168484
0.08213294768
0.1041786629
0.09102738082
0.03766503994
0.05723788589
0.07858265339
0.09989230625
0.09973548032
0.03711023406
0.05507630391
0.07404921475
0.09208794324
0.1039702002
0.03672581809
0.05333116071
0.07087502452
0.08859451056
0.1051741084
0.03657273533
0.05212894866
0.06885971863
0.08667317986
0.1041170337
0.03664737847
0.05135832852
0.06733513612
0.08452227329
0.1010089715
0.03687257149
0.05074984736
0.06570823456
0.08143543466
0.09575497318
0.03722331422
0.05029428747
0.06423323036
0.07868820534
0.0920853171
0.03765430079
0.0499870263
0.06312471372
0.07686820574
0.0903157527
0.03819796932
0.04986632931
0.06232048911
0.07546287761
0.08866280158
0.03888431448
0.0499213337
0.06168698356
0.07406247657
0.08652521845
0.03970678235
0.05008277913
0.06113974324
0.07276774352
0.08451348838
0.0408388792
0.05070348168
0.06135631727
0.07278061109
0.08461740546
0.04232271284
0.05181292289
0.06227930141
0.07385532874
0.08633683152
0.04276832354
0.05050645793
0.05860662667
0.06823293805
0.08370597875
0.04028782108
0.04449637473
0.04749690433
0.04893164143
0.04846044337
0.03546783349
0.03670550207
0.03650991052
0.03470028404
0.03132278708
0.02991290726
0.02951836447
0.02806574896
0.02564011399
0.02247076799
0.02457475063
0.02358100523
0.02193679602
0.01977490162
0.01729474371
0.01988068915
0.01885010309
0.01741288246
0.01569241451
0.01382538104
0.01591711512
0.01504652926
0.01391759653
0.01262394186
0.01125679105
0.01291655804
0.01223854456
0.01138415761
0.01042168792
0.00941314296
0.01059164519
0.01008099247
0.009445482763
0.008733532533
0.007987532325
0.008813309515
0.008433604427
0.007963354896
0.007436349393
0.006881704854
0.007463121364
0.007181260421
0.006832629148
0.006440525867
0.006024956645
0.006442034578
0.006231328455
0.005970673325
0.005675972678
0.005360945967
0.005670017036
0.005509973157
0.005311993705
0.005086872954
0.004844017706
0.0050839257
0.004959422429
0.004805601863
0.004629797332
0.00443848934
0.004635379823
0.00453568035
0.004412874219
0.00427198163
0.004117513429
0.00428828719
0.004206006212
0.004105124838
0.00398912382
0.003861191229
0.004015911131
0.003946071586
0.003860928061
0.003762935467
0.003654391391
0.003798249269
0.003737543105
0.00366396434
0.003579282721
0.003485194206
0.003620189374
0.00356643695
0.003501623676
0.003427060579
0.003344035017
0.003470392156
0.003422158499
0.003364234672
0.00329762287
0.003223330404
0.003340575868
0.003296902906
0.00324460078
0.003184460944
0.003117295383
0.00322491977
0.003185144497
0.003137586064
0.003082888528
0.003021723786
0.003119505286
0.00308314268
0.003039694133
0.002989696884
0.002933718589
0.003021788321
0.002988460228
0.002948638928
0.002902780961
0.002851373281
0.002930154801
0.002899549232
0.002862967343
0.002820802204
0.002773475965
0.002843579845
0.002815429417
0.002781761835
0.002742918555
0.002699268163
0.0027613925
0.002735462787
0.002704428898
0.002668589274
0.002628267314
0.002683129963
0.002659213467
0.002630567237
0.002597453257
0.002560156279
0.002608451502
0.002586363347
0.002559886735
0.002529252376
0.002494711655
0.002537088613
0.002516663528
0.002492162051
0.002463787873
0.002431763392
0.002468814111
0.0024499039
0.002427203301
0.002400892531
0.002371168705
0.002403420379
0.0023858918
0.002364835413
0.002340410956
0.002312793398
0.002340761435
0.002324494357
0.00230494045
0.002282241648
0.002256553577
0.002280652809
0.002265538941
0.002247359883
0.002226241972
0.002202323856
0.002222946411
0.002208888356
0.002191969196
0.002172301595
0.002150009275
0.002167505744
0.002154415821
0.002138652943
0.002120317763
0.002099520858
0.002114205444
0.002102004362
0.002087303974
0.002070194353
0.002050774477
0.002062931701
0.002051547812
0.002037825077
0.002021844228
0.002003693987
0.002013578146
0.002002946197
0.001990123772
0.00197518334
0.00195820454
0.001966047783
0.001956108815
0.001944116732
0.001930136683
0.001914240246
0.001920244828
0.001910944694
0.001899718611
0.001886625232
0.001871728982
0.00187608493
0.001867374989
0.001856857034
0.001844583948
0.001830613787
0.001833477423
0.001825312274
0.001815448376
0.001803933484
0.001790819995
0.001792354822
0.001784694184
0.001775436336
0.00176462446
0.001752305899
0.001752630522
0.001745436006
0.001736738427
0.001726576902
0.001714994285
0.001714265376
0.001707504444
0.001699328306
0.001689772425
0.001678875604
0.001677152444
0.001670792512
0.001663098839
0.001654103637
0.001643842107
0.001641307667
0.001635323313
0.001628081736
0.001619612194
0.00160994661
0.001606610977
0.001600972451
0.001594147396
0.001586162509
0.001577046856
0.001573628626
0.001568313995
0.001561879174
0.001554348396
0.001545747962
0.001545268257
0.001540215097
0.001534095526
0.001526931876
0.001518748422
0.009082900355
0.0005833007342
4.635808438e-05
8.314604999e-06
2.601672479e-06
1.017129015e-06
4.196196711e-07
1.738370792e-07
7.169324373e-08
2.986148726e-08
1.306518211e-08
6.422253149e-09
3.805772584e-09
2.765506737e-09
2.343458633e-09
2.168633002e-09
2.09359639e-09
2.059962051e-09
2.045345379e-09
2.038910542e-09
2.035943731e-09
2.0344524e-09
2.033594463e-09
2.033020318e-09
2.032582595e-09
2.032218684e-09
2.031901262e-09
2.031617461e-09
2.031356293e-09
2.031113228e-09
2.030888677e-09
2.030682403e-09
2.030491097e-09
2.030313403e-09
2.030147102e-09
2.029995088e-09
2.029858944e-09
2.029733318e-09
2.029617135e-09
2.029510798e-09
2.029412864e-09
2.029320727e-09
2.029233775e-09
2.029148456e-09
2.029070652e-09
2.029008161e-09
2.028957282e-09
2.028914328e-09
2.02887408e-09
2.028841184e-09
2.028811696e-09
2.028788894e-09
2.028766982e-09
2.028742386e-09
2.028625311e-09
2.027745109e-09
2.022185195e-09
1.996446698e-09
1.906745255e-09
1.789003925e-09
0.015355889
0.001613459874
0.000133222318
1.956087033e-05
5.437232669e-06
2.113038732e-06
9.390267105e-07
4.344809901e-07
2.022910454e-07
9.455797347e-08
4.518124618e-08
2.286029617e-08
1.285878037e-08
8.389538966e-09
6.387388921e-09
5.487972678e-09
5.081535393e-09
4.896767639e-09
4.81426556e-09
4.777529864e-09
4.760972768e-09
4.753185073e-09
4.749247369e-09
4.747035825e-09
4.745609659e-09
4.744567229e-09
4.743721638e-09
4.742980136e-09
4.742310767e-09
4.741733983e-09
4.741254391e-09
4.740846334e-09
4.740467857e-09
4.740112612e-09
4.739794978e-09
4.739540333e-09
4.739360461e-09
4.739163829e-09
4.738961578e-09
4.738810082e-09
4.738713311e-09
4.738623409e-09
4.738536274e-09
4.738465211e-09
4.738384741e-09
4.738329893e-09
4.738300492e-09
4.738309319e-09
4.738285224e-09
4.738317598e-09
4.738333537e-09
4.738392542e-09
4.738422449e-09
4.738458677e-09
4.738287296e-09
4.737080799e-09
4.731256401e-09
4.71210838e-09
4.676826094e-09
4.657127648e-09
0.01831547261
0.002537174897
0.0002036881025
2.630316475e-05
6.726547428e-06
2.603147794e-06
1.223885382e-06
6.231726314e-07
3.24199594e-07
1.696225915e-07
8.948315438e-08
4.835036358e-08
2.752323051e-08
1.711049287e-08
1.196864204e-08
9.464405235e-09
8.262813414e-09
7.696541561e-09
7.434926066e-09
7.315789501e-09
7.261806711e-09
7.237027475e-09
7.225220019e-09
7.219197592e-09
7.215777963e-09
7.213543698e-09
7.211894991e-09
7.210583582e-09
7.209483356e-09
7.208531568e-09
7.207713325e-09
7.207019919e-09
7.206430232e-09
7.205963066e-09
7.205563633e-09
7.205246746e-09
7.205042775e-09
7.204838401e-09
7.204638408e-09
7.204493237e-09
7.204421072e-09
7.204365088e-09
7.204348476e-09
7.204402606e-09
7.204474938e-09
7.204566912e-09
7.204673268e-09
7.204834699e-09
7.204951859e-09
7.205162017e-09
7.205350659e-09
7.205609807e-09
7.205817339e-09
7.206101015e-09
7.206200813e-09
7.206069424e-09
7.205431438e-09
7.208618145e-09
7.239442419e-09
7.289586405e-09
0.02798737611
0.006420083996
0.0005959419702
4.494992186e-05
8.009946047e-06
2.796115742e-06
1.338801927e-06
7.254164681e-07
4.10531969e-07
2.358445059e-07
1.361755655e-07
7.917044066e-08
4.691326875e-08
2.8972573e-08
1.921722637e-08
1.40584746e-08
1.1418046e-08
1.011469427e-08
9.489842148e-09
9.197998361e-09
9.064236964e-09
9.003536629e-09
8.975945132e-09
8.96316792e-09
8.95698002e-09
8.953721342e-09
8.951780473e-09
8.950478842e-09
8.949515071e-09
8.948756523e-09
8.94814795e-09
8.947666439e-09
8.947295502e-09
8.947048055e-09
8.946877256e-09
8.9467923e-09
8.946812939e-09
8.946839597e-09
8.946876156e-09
8.946953394e-09
8.947080829e-09
8.947231558e-09
8.947421283e-09
8.947669232e-09
8.947950141e-09
8.948254291e-09
8.948562989e-09
8.94891241e-09
8.949229273e-09
8.949626845e-09
8.950014654e-09
8.950468837e-09
8.950858364e-09
8.951379147e-09
8.951898949e-09
8.953156847e-09
8.957280071e-09
8.974464645e-09
9.028387069e-09
9.090424996e-09
0.04074752729
0.01341932195
0.002333059165
0.0001889789493
1.887944437e-05
4.273863196e-06
1.697588859e-06
8.714568347e-07
4.969391655e-07
2.964209154e-07
1.801094008e-07
1.102757227e-07
6.812441281e-08
4.280263474e-08
2.787702383e-08
1.935454955e-08
1.468961137e-08
1.225489967e-08
1.103284756e-08
1.044159417e-08
1.016393767e-08
1.003656665e-08
9.979202453e-09
9.953734269e-09
9.94254418e-09
9.937649594e-09
9.935498711e-09
9.934551218e-09
9.934141665e-09
9.933988181e-09
9.933974081e-09
9.934046805e-09
9.934187351e-09
9.93439955e-09
9.934654512e-09
9.934956366e-09
9.935310317e-09
9.935663083e-09
9.93601454e-09
9.936383447e-09
9.936773303e-09
9.937167572e-09
9.937578845e-09
9.938015481e-09
9.938467601e-09
9.938933276e-09
9.939400524e-09
9.939880395e-09
9.940340041e-09
9.94084469e-09
9.94134591e-09
9.941888493e-09
9.942392573e-09
9.943020998e-09
9.943806835e-09
9.945700769e-09
9.951239804e-09
9.969051189e-09
1.001244372e-08
1.005575668e-08
0.05504231092
0.02477188205
0.007294747672
0.00112306477
9.402947339e-05
1.212232862e-05
3.161707049e-06
1.282984971e-06
6.50378061e-07
3.693865808e-07
2.228219253e-07
1.386885984e-07
8.776580316e-08
5.626490413e-08
3.681494307e-08
2.508246344e-08
1.823979823e-08
1.442136755e-08
1.238083007e-08
1.133994046e-08
1.083058014e-08
1.058985021e-08
1.047937924e-08
1.043005873e-08
1.040870641e-08
1.039984706e-08
1.039645664e-08
1.039541601e-08
1.039536244e-08
1.039571561e-08
1.039623486e-08
1.039681725e-08
1.039742472e-08
1.039804825e-08
1.039867232e-08
1.039929799e-08
1.039992608e-08
1.040053804e-08
1.040113531e-08
1.04017268e-08
1.040231428e-08
1.040288819e-08
1.040345652e-08
1.040402062e-08
1.040457587e-08
1.040512813e-08
1.040567594e-08
1.04062212e-08
1.040674754e-08
1.040728245e-08
1.04078069e-08
1.040834959e-08
1.040887651e-08
1.0409502e-08
1.041034587e-08
1.041216925e-08
1.041684025e-08
1.042933076e-08
1.045470034e-08
1.047754231e-08
0.06867774203
0.03703554451
0.0156235994
0.004330020778
0.0005764898186
5.034937536e-05
7.984054314e-06
2.34491141e-06
9.814881839e-07
4.968282167e-07
2.818967965e-07
1.713897635e-07
1.083975925e-07
7.014680438e-08
4.627408786e-08
3.137931208e-08
2.227481765e-08
1.690193526e-08
1.385549032e-08
1.220755259e-08
1.13570644e-08
1.093696375e-08
1.073732662e-08
1.064569882e-08
1.060510947e-08
1.05879224e-08
1.058118727e-08
1.057899798e-08
1.057872791e-08
1.057923678e-08
1.058003875e-08
1.058093264e-08
1.05818398e-08
1.058273125e-08
1.058359426e-08
1.058442785e-08
1.058523259e-08
1.058600534e-08
1.058674855e-08
1.058746673e-08
1.058816207e-08
1.058883178e-08
1.058948072e-08
1.059010945e-08
1.059071642e-08
1.059130577e-08
1.05918785e-08
1.059243843e-08
1.059297984e-08
1.059351092e-08
1.059402598e-08
1.059454296e-08
1.059505675e-08
1.059565089e-08
1.059646385e-08
1.059802002e-08
1.060143448e-08
1.060897698e-08
1.062188419e-08
1.063236471e-08
0.08108360284
0.04906921838
0.02572835722
0.01056724441
0.002567540648
0.0002630624957
2.600739111e-05
5.164056527e-06
1.695669091e-06
7.377665123e-07
3.797826661e-07
2.184099631e-07
1.347288827e-07
8.657394707e-08
5.706557952e-08
3.853126956e-08
2.694051947e-08
1.985772693e-08
1.565095537e-08
1.32511414e-08
1.194413279e-08
1.126532183e-08
1.092834018e-08
1.076773557e-08
1.069409071e-08
1.066171248e-08
1.064829371e-08
1.064333177e-08
1.064202816e-08
1.064224748e-08
1.064306185e-08
1.06440797e-08
1.064514147e-08
1.06461851e-08
1.064718834e-08
1.064814571e-08
1.064905759e-08
1.06499254e-08
1.065075232e-08
1.065154195e-08
1.065229724e-08
1.065301898e-08
1.06537105e-08
1.065437386e-08
1.065501009e-08
1.065562136e-08
1.06562081e-08
1.065677358e-08
1.065731781e-08
1.06578444e-08
1.06583538e-08
1.065885825e-08
1.065936882e-08
1.065995598e-08
1.066075762e-08
1.06621466e-08
1.066475934e-08
1.066952041e-08
1.067638107e-08
1.068123526e-08
0.09166907916
0.06036736477
0.03540578529
0.0184500153
0.007298096959
0.001294993918
0.0001051632108
1.337376559e-05
3.298138688e-06
1.196293699e-06
5.441995699e-07
2.892960173e-07
1.711207258e-07
1.079471888e-07
7.058788491e-08
4.731323389e-08
3.263623631e-08
2.349386983e-08
1.790577064e-08
1.459645656e-08
1.271157055e-08
1.168462252e-08
1.115060398e-08
1.088515863e-08
1.075867456e-08
1.07008613e-08
1.067568507e-08
1.066550549e-08
1.066200118e-08
1.066136615e-08
1.066190626e-08
1.066288866e-08
1.066400516e-08
1.066513173e-08
1.066622171e-08
1.066726016e-08
1.066824467e-08
1.066917696e-08
1.067006063e-08
1.067089939e-08
1.067169683e-08
1.067245549e-08
1.067317854e-08
1.067386848e-08
1.06745275e-08
1.067515784e-08
1.067576069e-08
1.067633825e-08
1.067689181e-08
1.067742421e-08
1.067793912e-08
1.067844846e-08
1.067897394e-08
1.067958466e-08
1.068042274e-08
1.068178265e-08
1.068406642e-08
1.068765686e-08
1.069213593e-08
1.069476674e-08
0.09984165701
0.07156219063
0.04498838411
0.02594190981
0.01289320073
0.004011889475
0.0004464907833
3.723631584e-05
6.611237945e-06
1.97547065e-06
7.936683839e-07
3.896310497e-07
2.206034108e-07
1.363859074e-07
8.834700873e-08
5.87394345e-08
4.000293632e-08
2.819604683e-08
2.08461118e-08
1.638265419e-08
1.375670102e-08
1.226976605e-08
1.146352323e-08
1.104581471e-08
1.083885517e-08
1.074062261e-08
1.069602005e-08
1.067686418e-08
1.066937422e-08
1.066705443e-08
1.066693684e-08
1.066770397e-08
1.066878744e-08
1.066995062e-08
1.067109972e-08
1.067220096e-08
1.067324483e-08
1.067423113e-08
1.067516301e-08
1.067604446e-08
1.067687956e-08
1.067767181e-08
1.067842464e-08
1.067914099e-08
1.067982339e-08
1.068047427e-08
1.068109553e-08
1.06816894e-08
1.068225787e-08
1.068280386e-08
1.068333273e-08
1.068385852e-08
1.068441139e-08
1.068506726e-08
1.068597568e-08
1.068739212e-08
1.068961034e-08
1.069279722e-08
1.069641043e-08
1.069812638e-08
0.105006958
0.08247746713
0.0552417354
0.03404304303
0.01879229006
0.007665617808
0.001332367881
0.0001081001884
1.359987643e-05
3.236498177e-06
1.13854912e-06
5.189409798e-07
2.834676805e-07
1.727921545e-07
1.113213517e-07
7.365099456e-08
4.968007401e-08
3.441114131e-08
2.476388241e-08
1.879386028e-08
1.519630101e-08
1.309759422e-08
1.191923831e-08
1.128540777e-08
1.09594059e-08
1.079898085e-08
1.072340486e-08
1.068945811e-08
1.067517253e-08
1.066985373e-08
1.066847975e-08
1.066876447e-08
1.066969739e-08
1.06708456e-08
1.067203081e-08
1.067318404e-08
1.067428183e-08
1.067531893e-08
1.067629701e-08
1.06772199e-08
1.067809202e-08
1.067891743e-08
1.067969992e-08
1.068044287e-08
1.068114915e-08
1.068182153e-08
1.068246228e-08
1.068307389e-08
1.068365899e-08
1.068422146e-08
1.068476845e-08
1.068531746e-08
1.068590645e-08
1.068662065e-08
1.068761578e-08
1.068912386e-08
1.069137691e-08
1.06944336e-08
1.069768495e-08
1.069889871e-08
0.1072728193
0.09174037445
0.0655044007
0.04221890557
0.02453631279
0.01138168844
0.002907780447
0.0002851126572
2.909679871e-05
5.295133861e-06
1.592838179e-06
6.751351955e-07
3.588330583e-07
2.171388423e-07
1.397782982e-07
9.240668726e-08
6.204335275e-08
4.246916563e-08
2.991339189e-08
2.201201756e-08
1.71542978e-08
1.425088898e-08
1.257289626e-08
1.164005674e-08
1.114327045e-08
1.089018107e-08
1.076678624e-08
1.070925827e-08
1.068380479e-08
1.067339586e-08
1.066979738e-08
1.066916425e-08
1.066975591e-08
1.067080783e-08
1.067199545e-08
1.067318717e-08
1.067433373e-08
1.06754198e-08
1.067644352e-08
1.06774078e-08
1.067831705e-08
1.067917572e-08
1.067998798e-08
1.068075761e-08
1.068148793e-08
1.068218208e-08
1.06828427e-08
1.068347262e-08
1.06840751e-08
1.068465519e-08
1.068522248e-08
1.068579897e-08
1.068643053e-08
1.068721108e-08
1.068829821e-08
1.068990427e-08
1.069221429e-08
1.069521328e-08
1.069824598e-08
1.069906757e-08
0.1075268074
0.0987924151
0.07487451408
0.0501456383
0.03001784245
0.0148227233
0.004636072208
0.0006590085523
5.843000356e-05
8.615504389e-06
2.175450732e-06
8.548739113e-07
4.450213181e-07
2.686313386e-07
1.732495834e-07
1.147527548e-07
7.699199628e-08
5.23799011e-08
3.636680739e-08
2.611855321e-08
1.97037183e-08
1.578834125e-08
1.346896938e-08
1.214199242e-08
1.141247759e-08
1.102827596e-08
1.083460513e-08
1.074116847e-08
1.0698145e-08
1.067947221e-08
1.067213536e-08
1.066988582e-08
1.066982335e-08
1.067064289e-08
1.067177559e-08
1.067298259e-08
1.067416907e-08
1.06753011e-08
1.067636965e-08
1.067737529e-08
1.067832183e-08
1.06792139e-08
1.068005601e-08
1.068085239e-08
1.068160678e-08
1.068232271e-08
1.06830032e-08
1.068365154e-08
1.068427172e-08
1.068487041e-08
1.068546011e-08
1.068606764e-08
1.068674658e-08
1.068759791e-08
1.068877673e-08
1.069047514e-08
1.069283629e-08
1.069578615e-08
1.069863582e-08
1.069907382e-08
0.1063446817
0.1037900428
0.08311789429
0.05761786715
0.03504810576
0.01773956311
0.006248095526
0.001217154772
0.0001080185312
1.396647038e-05
3.015376035e-06
1.092401649e-06
5.519760131e-07
3.299342709e-07
2.122369158e-07
1.405919105e-07
9.432390969e-08
6.397599409e-08
4.401347276e-08
3.106229482e-08
2.282869528e-08
1.771416637e-08
1.462067777e-08
1.280720177e-08
1.17818332e-08
1.122482243e-08
1.093476101e-08
1.079006654e-08
1.072100016e-08
1.068963847e-08
1.067635772e-08
1.067143496e-08
1.0670229e-08
1.067059652e-08
1.06715786e-08
1.067276052e-08
1.067397052e-08
1.067514218e-08
1.067625332e-08
1.067729959e-08
1.067828321e-08
1.067920862e-08
1.068008056e-08
1.068090367e-08
1.068168209e-08
1.068241969e-08
1.068311995e-08
1.068378676e-08
1.068442506e-08
1.068504353e-08
1.068565801e-08
1.06863002e-08
1.068703058e-08
1.068795485e-08
1.068922257e-08
1.069100415e-08
1.069340365e-08
1.069629789e-08
1.069897198e-08
1.069900962e-08
0.1038513784
0.1067229476
0.08987148939
0.06412462777
0.03884740402
0.01933763725
0.007146618034
0.001796019436
0.0002011371415
2.536558185e-05
4.526638487e-06
1.440993224e-06
6.909272608e-07
4.044150941e-07
2.577934681e-07
1.70129508e-07
1.139527459e-07
7.708262485e-08
5.269260183e-08
3.671989811e-08
2.645081694e-08
1.998155692e-08
1.600472466e-08
1.362812668e-08
1.225268059e-08
1.148477978e-08
1.107251681e-08
1.086006167e-08
1.07550879e-08
1.070551032e-08
1.068336035e-08
1.067428919e-08
1.067122594e-08
1.067080829e-08
1.067148923e-08
1.067258006e-08
1.067378547e-08
1.067498511e-08
1.067613413e-08
1.067721912e-08
1.067823904e-08
1.067919739e-08
1.068009895e-08
1.068094858e-08
1.068175081e-08
1.068250987e-08
1.068322982e-08
1.068391527e-08
1.068457242e-08
1.068521223e-08
1.068585419e-08
1.068653481e-08
1.068732021e-08
1.068831812e-08
1.068967042e-08
1.06915251e-08
1.069394967e-08
1.069678057e-08
1.069928347e-08
1.069893294e-08
0.100143729
0.1075667456
0.09423979455
0.06795867271
0.03969136086
0.01863149485
0.006880741832
0.002045484465
0.0003378999765
4.853751283e-05
7.588219862e-06
2.032034936e-06
8.905250216e-07
5.010748403e-07
3.135004732e-07
2.049868669e-07
1.366432922e-07
9.204199744e-08
6.252815412e-08
4.313345632e-08
3.055830501e-08
2.256469951e-08
1.759868313e-08
1.459066514e-08
1.281899407e-08
1.180768383e-08
1.125009325e-08
1.095395323e-08
1.080274083e-08
1.072868781e-08
1.069411627e-08
1.067899355e-08
1.067310257e-08
1.067142553e-08
1.067158204e-08
1.067248004e-08
1.067363578e-08
1.067484387e-08
1.067602242e-08
1.067714255e-08
1.067819716e-08
1.067918766e-08
1.068011831e-08
1.068099406e-08
1.068181973e-08
1.06826e-08
1.068333958e-08
1.068404398e-08
1.068472089e-08
1.068538385e-08
1.068605605e-08
1.068677853e-08
1.068762173e-08
1.068869308e-08
1.069012488e-08
1.069204246e-08
1.069447967e-08
1.069724058e-08
1.069957816e-08
1.069886789e-08
0.09693988782
0.1066302804
0.09434586958
0.06575639843
0.03523470007
0.01520964767