/*--------------------------------*- C++ -*----------------------------------*\
  =========                 |
  \\      /  F ield         | OpenFOAM: The Open Source CFD Toolbox
   \\    /   O peration     | Website:  https://openfoam.org
    \\  /    A nd           | Version:  10
     \\/     M anipulation  |
\*---------------------------------------------------------------------------*/
FoamFile
{
    format      ascii;
    class       volScalarField;
    location    "0.0250188088";
    object      CO2_0;
}
// * * * * * * * * * * * * * * * * * * * * * * * * * * * * * * * * * * * * * //

dimensions      [0 0 0 0 0 0 0];

internalField   nonuniform List<scalar> 
5170
(
2.980915749e-12
2.975541123e-12
2.940508888e-12
2.695715272e-12
2.101235372e-13
5.998490642e-12
5.981717369e-12
5.907112332e-12
5.527832646e-12
3.402106035e-12
9.013691022e-12
8.986062471e-12
8.877575522e-12
8.425025934e-12
6.646172764e-12
1.198955315e-11
1.195261153e-11
1.181949397e-11
1.133999368e-11
9.923658663e-12
1.491787451e-11
1.487342414e-11
1.472552976e-11
1.425517649e-11
1.320030902e-11
1.7798559e-11
1.774960671e-11
1.759691145e-11
1.716742687e-11
1.646890069e-11
2.063681995e-11
2.058583978e-11
2.043774714e-11
2.007984423e-11
1.973123816e-11
2.344094117e-11
2.339127768e-11
2.325647224e-11
2.29953795e-11
2.299237683e-11
2.621840532e-11
2.61728753e-11
2.606079974e-11
2.592024451e-11
2.625838903e-11
2.89764502e-11
2.89369993e-11
2.885393892e-11
2.886080483e-11
2.953552025e-11
3.171958451e-11
3.168828735e-11
3.16397857e-11
3.182069936e-11
3.282656162e-11
3.444933176e-11
3.442886573e-11
3.442669907e-11
3.480063466e-11
3.612992318e-11
3.716713644e-11
3.716022646e-11
3.721793213e-11
3.780133038e-11
3.94428115e-11
3.987363109e-11
3.988315063e-11
4.001287599e-11
4.082211227e-11
4.276116142e-11
4.256839285e-11
4.259783934e-11
4.281100469e-11
4.386000547e-11
4.607914094e-11
4.524974958e-11
4.530307637e-11
4.561518997e-11
4.691357886e-11
4.938646147e-11
4.791668387e-11
4.799857144e-11
4.842312783e-11
4.999045342e-11
5.274458199e-11
5.063518429e-11
5.089751099e-11
5.2486566e-11
6.210873264e-11
9.066619852e-11
7.760491107e-11
1.513399799e-10
7.166778857e-10
4.879577824e-09
1.963964669e-08
7.313710772e-09
4.060305957e-08
3.252046449e-07
2.304600911e-06
1.119401346e-05
0.1123620328
0.1123620735
0.1123638503
0.1123625111
0.112361825
0.1138269049
0.113660654
0.1136634662
0.1136847131
0.1139060606
0.1146005863
0.1144076225
0.1144074051
0.1144746708
0.1147194595
0.1150425212
0.1148600294
0.1148543056
0.1149493283
0.1151552776
0.1153142161
0.1151550409
0.1151492234
0.115240567
0.1154299929
0.1154688079
0.1153472075
0.1153351552
0.1154269654
0.1155774106
0.1155984541
0.115473804
0.115463703
0.11554291
0.1156649306
0.1156728707
0.1155861032
0.1155752421
0.1156257676
0.1157475339
0.1157436804
0.1156562875
0.1156473413
0.1157125256
0.1158275792
0.1158134581
0.1157312094
0.1157230479
0.1157865451
0.115876782
0.1158622155
0.1157966189
0.1157893289
0.1158496521
0.1159146166
0.1159002369
0.1158539238
0.1158484254
0.1158890135
0.115945663
0.1159308809
0.1158906202
0.1158864381
0.1159239493
0.115975537
0.1159599563
0.1159228188
0.1159195792
0.1159532272
0.1160034209
0.115987891
0.115950233
0.1159477789
0.1159812067
0.1160288186
0.1160135281
0.1159769667
0.1159753539
0.1160082781
0.1160524432
0.1160370924
0.1160030972
0.1160023364
0.1160333262
0.1160737756
0.1160573006
0.1160273791
0.1160277692
0.1160564821
0.1160919319
0.1160740347
0.1160497569
0.116050812
0.1160745553
0.1161012821
0.1161733796
0.1161028869
0.1159903553
0.1158673146
0.1155937645
2.744818926e-07
2.142958026e-06
3.309494055e-05
0.0004937526041
0.006623456176
1.503983276e-06
1.016839638e-05
0.0001238712403
0.001295477015
0.00984963563
4.967174869e-06
3.011021522e-05
0.0003011256131
0.002381945871
0.01215435249
1.288704898e-05
7.031691262e-05
0.000591134874
0.003695966335
0.01387614004
2.929429592e-05
0.0001461182378
0.001043908243
0.005172085804
0.01517231732
6.098400427e-05
0.0002799401928
0.001686297072
0.006680159634
0.01628822513
0.0001188127353
0.0004997818068
0.002517321026
0.00814995163
0.01735240603
0.0002193219221
0.0008375893486
0.003520280472
0.009569499064
0.01838845353
0.0003893278827
0.001335777473
0.004673690354
0.01093061037
0.01937303505
0.0006693281273
0.002032654496
0.005949365288
0.01227012218
0.02036340511
0.001121588684
0.002971116859
0.007331657508
0.01361759438
0.02139037487
0.00186257906
0.004166030176
0.008789040957
0.01499396359
0.02246149183
0.003028680971
0.005610624959
0.01032979828
0.01640968321
0.02358045023
0.004573364735
0.007268939089
0.01195813946
0.01786749919
0.02473732942
0.006624455387
0.009212561387
0.01373108334
0.01940813873
0.02596588679
0.009044274108
0.01141711965
0.01568246847
0.02108585705
0.02731679967
0.01183869157
0.01396636892
0.01791373858
0.02297976808
0.02884174273
0.01505718177
0.0169056449
0.02046544925
0.02514546801
0.03063065372
0.01845668988
0.02006246602
0.0232628931
0.02757811249
0.03270156583
0.02202140583
0.02341969044
0.02623364642
0.03003128365
0.03449619781
0.02559154428
0.0266747402
0.02882322206
0.03162587689
0.03474341696
0.02816069544
0.02873284782
0.0298615169
0.03129061351
0.03278308496
0.02791248292
0.02809984468
0.02845061599
0.02884786883
0.02917317524
0.02521277321
0.02520816804
0.02516544879
0.0250410403
0.02478983598
0.02135362867
0.02128032456
0.02110016576
0.02080424853
0.0203861542
0.01739471853
0.01731314297
0.01712471952
0.01683058923
0.01643388068
0.01414146994
0.01407258759
0.01391374691
0.01366922386
0.01334524779
0.01153908964
0.0114851325
0.01136168159
0.01117309196
0.01092519551
0.009524865228
0.009484199326
0.009391686027
0.009250897239
0.009066369126
0.00799229317
0.007962137254
0.007893816603
0.007790027965
0.00765403911
0.006836756072
0.006814435741
0.006764038843
0.006687524932
0.006587153348
0.005968751119
0.005952054512
0.00591447226
0.00585741783
0.005782423824
0.005315562961
0.005302800669
0.005274169764
0.00523070412
0.005173440288
0.004820535154
0.004810493951
0.004788047551
0.00475397754
0.00470899376
0.004441097164
0.004432941298
0.004414778022
0.004387221757
0.004350770098
0.004145820307
0.004138990184
0.004123833523
0.004100853896
0.004070411765
0.003911443037
0.003905569012
0.00389257587
0.003872890744
0.003846784504
0.003720664636
0.003715505992
0.003704124681
0.003686892861
0.003664022084
0.003560725884
0.003556125684
0.003545996329
0.003530667674
0.003510310715
0.00342246143
0.00341831647
0.00340920165
0.00339541249
0.003377091212
0.003299523487
0.003295763215
0.003287501402
0.003275004324
0.003258392795
0.003187688877
0.003184262601
0.003176738119
0.003165356247
0.003150221214
0.003084236771
0.003081105423
0.003074230268
0.00306382952
0.003049994012
0.002987445367
0.002984577247
0.002978280398
0.00296875297
0.002956074725
0.002896215643
0.00289358376
0.002887805488
0.002879061027
0.002867420765
0.002809819502
0.002807400477
0.002802089118
0.002794049632
0.002783344407
0.002727745175
0.002725518406
0.002720628744
0.002713226052
0.002703365804
0.002649609665
0.002647556946
0.002643048975
0.002636222799
0.0026271279
0.002575106885
0.002573211998
0.002569050217
0.002562747057
0.002554346766
0.002503976735
0.002502225242
0.002498377951
0.002492550044
0.002484781192
0.002435982898
0.002434361736
0.002430800504
0.00242540505
0.002418211021
0.002370952634
0.002369450347
0.002366149791
0.002361148423
0.002354478365
0.002308679429
0.002307285495
0.002304222704
0.002299580904
0.002293389101
0.002248993921
0.002247698984
0.002244853429
0.002240540233
0.002234785647
0.002191740754
0.002190536402
0.002187889677
0.002183877305
0.002178523091
0.002136778388
0.002135657055
0.002133192552
0.002129455936
0.002124468844
0.002083978313
0.002082933165
0.002080635924
0.002077152476
0.002072502521
0.002033221829
0.002032246671
0.002030103097
0.002026852289
0.002022512216
0.001984399906
0.001983489141
0.001981486979
0.001978450296
0.001974395513
0.001937407405
0.001936555921
0.001934683947
0.001931844429
0.001928052401
0.001892149585
0.001891352785
0.001889600926
0.001886943347
0.001883393834
0.001848529371
0.001847782988
0.001846141872
0.001843652065
0.001840326229
0.001806469825
0.001805770062
0.001804231374
0.001801896762
0.001798777878
0.00176588038
0.001765223654
0.001763779511
0.001761588171
0.001758660372
0.001726711334
0.001726094578
0.001724738271
0.001722680057
0.001719929844
0.001688855046
0.001688275242
0.001687000123
0.001685064965
0.001682478926
0.001652315073
0.001651769801
0.001650570583
0.001648750497
0.001646318019
0.00161697825
0.001616464761
0.00161533538
0.001613621173
0.001611330013
0.001583397691
0.001582913891
0.001581849818
0.001580234671
0.00157807575
0.00155455263
0.001554092957
0.001553081865
0.001551547025
0.001549495263
0.02423934507
0.02433661752
0.02434521111
0.02432132317
0.02433525107
0.02456809553
0.02498520768
0.02548452296
0.02599405291
0.02658468412
0.02727766398
0.02805067071
0.02889751497
0.02978673939
0.03076107639
0.03186047265
0.03311607008
0.03465931316
0.03649838623
0.03773465048
0.03685151968
0.03370884114
0.02930624152
0.02455070602
0.02005656109
0.01612993626
0.01310143247
0.01073946959
0.008928003575
0.00755166638
0.006511115144
0.005725144808
0.005129286608
0.004673954778
0.004322088737
0.00404623349
0.003825881543
0.003645589601
0.003493822276
0.003362197751
0.00324485469
0.003137864537
0.003038684238
0.002945701624
0.002857890423
0.002774574856
0.002695284771
0.002619671176
0.002547457109
0.002478407382
0.002412307041
0.002349002971
0.002288305045
0.002230059511
0.002174124843
0.002120371364
0.002068681333
0.002018945062
0.001971062299
0.001924934705
0.001880475107
0.001837591064
0.001796212589
0.001756251965
0.001717667265
0.00168035119
0.001644316439
0.001609444583
0.001576298967
0.001547806479
0.05979688214
0.1082792754
0.1127966429
0.1030859409
0.07604578388
0.05017105451
0.08675718791
0.1131503786
0.09703357686
0.06041100665
0.04552630984
0.07575997616
0.1054870367
0.09771379747
0.05641288764
0.04222265436
0.06755687801
0.09098225481
0.1012823701
0.06551274766
0.03991627743
0.06254921403
0.08552960252
0.1045997275
0.07925742904
0.03850520105
0.05950356276
0.08213665021
0.1041891885
0.09101547954
0.03766974834
0.05724555462
0.07859312827
0.0999078228
0.09972275636
0.0371114155
0.05507814144
0.07405034266
0.09208765586
0.1039671842
0.03672223586
0.05332585458
0.07086855204
0.08858548283
0.1051702585
0.03657178072
0.05212764346
0.06885817576
0.08667495522
0.1041180994
0.03665057141
0.05136174672
0.06733965656
0.08452889675
0.1010207578
0.03687974857
0.050757944
0.06571720071
0.08144530409
0.09576796372
0.03722877811
0.05030023149
0.06423873458
0.07869284199
0.09208820143
0.03765390224
0.04998546193
0.06312195836
0.0768650891
0.09031330957
0.03819524707
0.0498630936
0.06231628013
0.0754575962
0.088656311
0.03888112248
0.04991739759
0.06168138883
0.07405537807
0.08651989105
0.03970376879
0.05008074659
0.06114351985
0.07278865113
0.0845648957
0.04084711026
0.05072502386
0.06140423238
0.07287390608
0.08478328525
0.04231756796
0.05181103662
0.0622869912
0.07387789809
0.0863789716
0.04264084056
0.05023218968
0.05797068836
0.06664232754
0.07978937354
0.040025802
0.04407634147
0.04683509281
0.04789744356
0.04697268281
0.03515146338
0.03629188012
0.0359970073
0.03409517603
0.03066341948
0.02961358155
0.02917552009
0.02769705491
0.02526853915
0.02212223306
0.02432233921
0.0233191321
0.02167812422
0.01953342007
0.01708227369
0.0196840504
0.0186568316
0.01723091976
0.01552870677
0.01368472905
0.01577192989
0.01490799309
0.01379018738
0.01251096633
0.01116010752
0.01281061219
0.01213865884
0.01129299616
0.0103410018
0.00934375015
0.01051564126
0.01000962964
0.009380421882
0.008675789082
0.007937524553
0.008759468586
0.008383068655
0.007917197771
0.007395205151
0.006845821086
0.007425391934
0.007145793647
0.006800132377
0.006411412934
0.005999390057
0.006415856902
0.00620665179
0.005947966985
0.005655513371
0.005342847462
0.00565201673
0.005492938293
0.005296235634
0.005072579069
0.004831270905
0.005071654423
0.004947753998
0.004794742072
0.004619873597
0.004429562855
0.004627098299
0.004527764581
0.004405459772
0.004265154909
0.004111319344
0.004282775932
0.004200710267
0.004100133016
0.003984494357
0.003856956444
0.004012313502
0.003942596268
0.003857632764
0.003759858916
0.003651556293
0.003795956362
0.003735316719
0.003661841361
0.003577288428
0.003483344064
0.003618766055
0.003565047974
0.003500292084
0.003425802425
0.003342860499
0.003469530592
0.003421313646
0.003363420508
0.003296849282
0.003222603877
0.00334006425
0.003296398935
0.003244112668
0.003183994594
0.003116854777
0.003224618077
0.003184846147
0.003137295738
0.003082609648
0.003021458727
0.003119325175
0.003082964051
0.003039519596
0.002989528383
0.002933557518
0.003021676701
0.002988349379
0.002948530295
0.00290267565
0.002851272112
0.002930081122
0.002899476086
0.002862895546
0.0028207324
0.002773408651
0.002843527173
0.002815377209
0.002781710577
0.002742868646
0.002699219923
0.002761351665
0.002735422393
0.002704389264
0.002668550667
0.002628229958
0.002683096074
0.002659180007
0.002630534438
0.002597421318
0.002560125372
0.00260842196
0.002586334219
0.002559858209
0.002529224614
0.002494684799
0.002537062028
0.002516637335
0.002492136413
0.002463762931
0.002431739271
0.002468789706
0.002449879859
0.002427179772
0.002400869641
0.002371146565
0.002403397698
0.002385869448
0.002364813526
0.002340389652
0.002312772775
0.002340740067
0.00232447328
0.00230491979
0.002282221512
0.002256534057
0.002280632522
0.002265518907
0.002247340219
0.002226222779
0.002202305219
0.002222927049
0.002208869213
0.002191950384
0.002172283207
0.00214999139
0.002167487199
0.002154397465
0.002138634882
0.002120300085
0.002099503638
0.00211418765
0.002101986731
0.002087286606
0.002070177331
0.002050757872
0.002062914625
0.002051530876
0.002037808374
0.002021827838
0.002003677976
0.002013561773
0.002002929942
0.001990107723
0.001975167573
0.001958189116
0.001966032094
0.001956093224
0.001944101323
0.001930121525
0.001914225398
0.001920229797
0.001910929743
0.00189970382
0.001886610665
0.001871714693
0.001876070517
0.00186736064
0.001856842823
0.001844569936
0.001830600023
0.001833463577
0.001825298478
0.001815434696
0.001803919978
0.001790806708
0.001792341516
0.001784680914
0.001775423163
0.001764611437
0.001752293069
0.001752617742
0.00174542325
0.001736725752
0.001726564358
0.00171498191
0.001714253114
0.001707492197
0.001699316129
0.001689760362
0.00167886369
0.00167714065
0.001670780726
0.001663087113
0.00165409201
0.001643830615
0.001641296274
0.001635311916
0.001628070382
0.00161960092
0.001609935447
0.001606599928
0.001600961376
0.001594136333
0.001586151491
0.001577035911
0.001573618017
0.001568303317
0.001561868455
0.001554337658
0.001545737225
0.001545258412
0.001540205192
0.00153408558
0.001526921903
0.001518738435
0.009084377733
0.0005836347608
4.641417096e-05
8.324371324e-06
2.60402112e-06
1.017739766e-06
4.197242842e-07
1.73815172e-07
7.165974417e-08
2.984018333e-08
1.305572046e-08
6.419799675e-09
3.806642778e-09
2.767744907e-09
2.346208776e-09
2.171566364e-09
2.096595356e-09
2.062984733e-09
2.048377883e-09
2.041947295e-09
2.038982127e-09
2.037491354e-09
2.036633569e-09
2.03605949e-09
2.035621971e-09
2.035258302e-09
2.034941167e-09
2.034657717e-09
2.034396964e-09
2.034154355e-09
2.033930282e-09
2.033724476e-09
2.033533628e-09
2.033356425e-09
2.033190644e-09
2.033039151e-09
2.032903503e-09
2.032778352e-09
2.032662646e-09
2.032556774e-09
2.032459274e-09
2.032367534e-09
2.032280957e-09
2.032195965e-09
2.032118474e-09
2.032056287e-09
2.032005686e-09
2.031962991e-09
2.031922977e-09
2.031890303e-09
2.031861004e-09
2.031838381e-09
2.031816623e-09
2.031792221e-09
2.031675614e-09
2.030797297e-09
2.025243788e-09
1.999518419e-09
1.909822586e-09
1.792094871e-09
0.01535437316
0.001613097399
0.0001331814871
1.955480036e-05
5.435494749e-06
2.112236654e-06
9.386280951e-07
4.342196624e-07
2.021329131e-07
9.447314781e-08
4.514137019e-08
2.284463393e-08
1.285487992e-08
8.39087961e-09
6.390940555e-09
5.492443518e-09
5.086397977e-09
4.90180524e-09
4.81938475e-09
4.782687204e-09
4.766147063e-09
4.758366984e-09
4.754432924e-09
4.752223056e-09
4.750797864e-09
4.74975644e-09
4.748911791e-09
4.74817163e-09
4.747503704e-09
4.746928219e-09
4.746450158e-09
4.746043593e-09
4.745666603e-09
4.745313378e-09
4.744997839e-09
4.744744958e-09
4.744566871e-09
4.744372058e-09
4.744171758e-09
4.744021974e-09
4.743926982e-09
4.743838871e-09
4.743753324e-09
4.743683931e-09
4.743605336e-09
4.743552034e-09
4.743524155e-09
4.743534221e-09
4.743511239e-09
4.743544949e-09
4.743561529e-09
4.743621766e-09
4.743652486e-09
4.743689756e-09
4.743520002e-09
4.742320006e-09
4.736518231e-09
4.717445411e-09
4.682359685e-09
4.662899225e-09
0.01831417973
0.002535604644
0.0002034029034
2.626681544e-05
6.719296503e-06
2.600802551e-06
1.222875627e-06
6.226156069e-07
3.238795619e-07
1.694453935e-07
8.939067798e-08
4.830547752e-08
2.750339092e-08
1.710312869e-08
1.196729111e-08
9.465923704e-09
8.265723105e-09
7.700141848e-09
7.438865369e-09
7.319892875e-09
7.265988144e-09
7.241246189e-09
7.229457701e-09
7.223446345e-09
7.220034715e-09
7.217807147e-09
7.216164412e-09
7.214858709e-09
7.213764029e-09
7.21281748e-09
7.212004297e-09
7.211315946e-09
7.210731172e-09
7.210268996e-09
7.209874312e-09
7.20956205e-09
7.209362849e-09
7.20916272e-09
7.208966974e-09
7.208825868e-09
7.208757577e-09
7.208705377e-09
7.208692409e-09
7.208749896e-09
7.208825646e-09
7.208920638e-09
7.209029882e-09
7.209193848e-09
7.209313327e-09
7.209525734e-09
7.209716306e-09
7.20997731e-09
7.210186217e-09
7.210471594e-09
7.210573795e-09
7.210449601e-09
7.209834428e-09
7.213088113e-09
7.244049441e-09
7.294302263e-09
0.02799389608
0.006417937674
0.0005949571131
4.484467032e-05
7.994509457e-06
2.792136083e-06
1.337232989e-06
7.246293044e-07
4.100983887e-07
2.355990879e-07
1.360390106e-07
7.909596205e-08
4.687329833e-08
2.895149617e-08
1.920640254e-08
1.405321123e-08
1.141581853e-08
1.011411573e-08
9.490124015e-09
9.198712759e-09
9.065162834e-09
9.004565398e-09
8.977026e-09
8.964278277e-09
8.958109691e-09
8.954865317e-09
8.952936406e-09
8.951645396e-09
8.950691391e-09
8.949942011e-09
8.949342016e-09
8.948868595e-09
8.948505266e-09
8.948265061e-09
8.948101068e-09
8.94802249e-09
8.948049265e-09
8.948081632e-09
8.948123718e-09
8.948206177e-09
8.948338504e-09
8.948493766e-09
8.948687728e-09
8.948939499e-09
8.949224031e-09
8.949531408e-09
8.949843065e-09
8.950195076e-09
8.950514318e-09
8.950913871e-09
8.951303424e-09
8.951759002e-09
8.952149654e-09
8.952671408e-09
8.953192538e-09
8.954452617e-09
8.958580082e-09
8.975764141e-09
9.02964224e-09
9.091587082e-09
0.04074730427
0.01341419605
0.0023308997
0.0001886348553
1.883758102e-05
4.265388397e-06
1.69467397e-06
8.701391441e-07
4.962714586e-07
2.960643586e-07
1.799124221e-07
1.101645292e-07
6.805915401e-08
4.276360895e-08
2.785347698e-08
1.934032989e-08
1.468092278e-08
1.224935634e-08
1.102900166e-08
1.043862282e-08
1.016139958e-08
1.003423841e-08
9.976976373e-09
9.951560458e-09
9.94039972e-09
9.935523842e-09
9.933386784e-09
9.932450633e-09
9.932051012e-09
9.931906546e-09
9.931900687e-09
9.931981047e-09
9.932128617e-09
9.93234726e-09
9.932608158e-09
9.932915462e-09
9.933274473e-09
9.933631963e-09
9.933987905e-09
9.934361001e-09
9.934754737e-09
9.935152526e-09
9.935567032e-09
9.936006506e-09
9.936461172e-09
9.936929019e-09
9.937398253e-09
9.937879789e-09
9.938340926e-09
9.938846622e-09
9.939348672e-09
9.939891682e-09
9.940396095e-09
9.941024326e-09
9.941809611e-09
9.943700084e-09
9.94922611e-09
9.966988487e-09
1.00102442e-08
1.005339617e-08
0.05502585257
0.02475893174
0.007289463056
0.001121702985
9.378919152e-05
1.208426589e-05
3.152281566e-06
1.279649224e-06
6.4895472e-07
3.687257765e-07
2.224983656e-07
1.385202107e-07
8.767177169e-08
5.620903754e-08
3.678053028e-08
2.506073716e-08
1.822561657e-08
1.441168509e-08
1.237370602e-08
1.133419545e-08
1.082554054e-08
1.058515694e-08
1.047485214e-08
1.04256115e-08
1.040429883e-08
1.039546097e-08
1.039208372e-08
1.039105232e-08
1.039100609e-08
1.039136557e-08
1.039189029e-08
1.039247764e-08
1.039308961e-08
1.039371719e-08
1.039434491e-08
1.039497388e-08
1.039560494e-08
1.039621963e-08
1.039681941e-08
1.039741318e-08
1.039800271e-08
1.039857846e-08
1.039914843e-08
1.039971391e-08
1.040027034e-08
1.040082354e-08
1.040137214e-08
1.040191797e-08
1.040244478e-08
1.040297987e-08
1.040350436e-08
1.040404681e-08
1.040457342e-08
1.040519806e-08
1.040604032e-08
1.040785817e-08
1.04125118e-08
1.042494895e-08
1.045019749e-08
1.047291688e-08
0.06866412234
0.03702498244
0.01561775777
0.004328619769
0.0005753744349
5.015333267e-05
7.951411816e-06
2.336184082e-06
9.783457968e-07
4.95537662e-07
2.813307654e-07
1.711260499e-07
1.082640552e-07
7.007210265e-08
4.622862064e-08
3.13501116e-08
2.225542962e-08
1.688860265e-08
1.384583335e-08
1.219989312e-08
1.135047262e-08
1.093091195e-08
1.073153625e-08
1.064003149e-08
1.059949944e-08
1.058233963e-08
1.057561817e-08
1.057343648e-08
1.057317134e-08
1.05736838e-08
1.057448863e-08
1.057538499e-08
1.057629427e-08
1.05771876e-08
1.057805226e-08
1.057888729e-08
1.05796933e-08
1.058046717e-08
1.058121137e-08
1.058193041e-08
1.058262648e-08
1.05832968e-08
1.058394625e-08
1.058457537e-08
1.058518265e-08
1.058577219e-08
1.058634502e-08
1.058690491e-08
1.058744625e-08
1.058797712e-08
1.058849192e-08
1.058900847e-08
1.058952178e-08
1.059011507e-08
1.059092645e-08
1.059247805e-08
1.05958795e-08
1.060338659e-08
1.061622341e-08
1.062663848e-08
0.08108047979
0.04906206451
0.025727307
0.01057135474
0.002565099993
0.0002618542429
2.585361941e-05
5.13640322e-06
1.687899005e-06
7.349766896e-07
3.786709113e-07
2.179412947e-07
1.345169116e-07
8.646684888e-08
5.700431297e-08
3.849285892e-08
2.691519874e-08
1.984047217e-08
1.563865805e-08
1.324177187e-08
1.193641057e-08
1.125846866e-08
1.092190447e-08
1.076149823e-08
1.068794456e-08
1.06556074e-08
1.0642207e-08
1.063725345e-08
1.063595393e-08
1.063617544e-08
1.063699117e-08
1.063800998e-08
1.063907247e-08
1.064011669e-08
1.064112039e-08
1.064207815e-08
1.064299032e-08
1.064385837e-08
1.064468547e-08
1.064547524e-08
1.064623059e-08
1.064695235e-08
1.064764386e-08
1.064830715e-08
1.064894328e-08
1.064955441e-08
1.065014099e-08
1.065070624e-08
1.065125024e-08
1.065177654e-08
1.065228567e-08
1.065278976e-08
1.065329993e-08
1.065388645e-08
1.065468696e-08
1.06560731e-08
1.065867855e-08
1.066342185e-08
1.067025056e-08
1.067507648e-08
0.09166881135
0.06035803539
0.03539529662
0.01844470143
0.007291746626
0.001288855991
0.0001042945831
1.327408483e-05
3.277539137e-06
1.18992089e-06
5.41866937e-07
2.883938957e-07
1.707542452e-07
1.077822506e-07
7.050165697e-08
4.726178622e-08
3.260311713e-08
2.347169827e-08
1.789038106e-08
1.458519322e-08
1.270270591e-08
1.167707502e-08
1.11437378e-08
1.087862472e-08
1.075229486e-08
1.069455036e-08
1.066940387e-08
1.065923678e-08
1.065573766e-08
1.065510477e-08
1.065564575e-08
1.065662849e-08
1.065774509e-08
1.065887167e-08
1.065996159e-08
1.066099997e-08
1.066198435e-08
1.066291651e-08
1.066380003e-08
1.066463862e-08
1.066543587e-08
1.066619434e-08
1.066691718e-08
1.06676069e-08
1.066826571e-08
1.066889584e-08
1.066949848e-08
1.06700758e-08
1.067062913e-08
1.067116128e-08
1.067167593e-08
1.067218498e-08
1.067271014e-08
1.06733204e-08
1.067415774e-08
1.067551609e-08
1.067779637e-08
1.068137918e-08
1.068584545e-08
1.068846509e-08
0.09983360285
0.07155078153
0.0449789778
0.02593134293
0.01287650411
0.003989192874
0.0004414874433
3.685028707e-05
6.557801188e-06
1.961729587e-06
7.890648301e-07
3.879704984e-07
2.199802737e-07
1.361300895e-07
8.822378875e-08
5.866952399e-08
3.995910846e-08
2.816728978e-08
2.082666396e-08
1.636893982e-08
1.374640253e-08
1.22614098e-08
1.145621282e-08
1.103903574e-08
1.083233162e-08
1.07342159e-08
1.06896646e-08
1.06705304e-08
1.066304924e-08
1.066073285e-08
1.066061642e-08
1.066138383e-08
1.066246723e-08
1.066363021e-08
1.066477905e-08
1.066588003e-08
1.066692362e-08
1.066790965e-08
1.066884127e-08
1.066972246e-08
1.06705573e-08
1.067134929e-08
1.067210187e-08
1.067281797e-08
1.067350013e-08
1.067415075e-08
1.067477177e-08
1.067536541e-08
1.067593364e-08
1.067647939e-08
1.067700802e-08
1.067753355e-08
1.067808613e-08
1.067874163e-08
1.067964952e-08
1.068106504e-08
1.068328155e-08
1.068646508e-08
1.069007288e-08
1.069178402e-08
0.1050046606
0.08247250007
0.05523591453
0.03402833475
0.01876436079
0.007620085324
0.001314887821
0.000106750073
1.346437386e-05
3.207568282e-06
1.129957101e-06
5.160893984e-07
2.82470392e-07
1.724093289e-07
1.111479107e-07
7.355618624e-08
4.962175949e-08
3.437345704e-08
2.473892869e-08
1.877682549e-08
1.518406265e-08
1.308814735e-08
1.191133988e-08
1.127832455e-08
1.095272896e-08
1.079249588e-08
1.071700638e-08
1.068309699e-08
1.066882688e-08
1.066351418e-08
1.066214238e-08
1.066242772e-08
1.066336063e-08
1.066450861e-08
1.066569351e-08
1.066684641e-08
1.066794387e-08
1.066898065e-08
1.06699584e-08
1.0670881e-08
1.067175281e-08
1.067257793e-08
1.067336015e-08
1.067410282e-08
1.067480884e-08
1.067548095e-08
1.067612146e-08
1.067673281e-08
1.067731768e-08
1.06778799e-08
1.067842665e-08
1.067897541e-08
1.067956412e-08
1.068027797e-08
1.068127262e-08
1.068278002e-08
1.068503198e-08
1.068808673e-08
1.069133508e-08
1.069254614e-08
0.1072664515
0.09174043467
0.06549532338
0.04219195033
0.0244867141
0.01130857838
0.002868645961
0.0002797639455
2.864117202e-05
5.226884977e-06
1.576669091e-06
6.704192053e-07
3.573067712e-07
2.165792753e-07
1.395308743e-07
9.227441835e-08
6.196373846e-08
4.24186181e-08
2.988091308e-08
2.199044485e-08
1.713938383e-08
1.423992112e-08
1.256416986e-08
1.163254229e-08
1.113637951e-08
1.088359421e-08
1.076034031e-08
1.070287471e-08
1.067744769e-08
1.066704946e-08
1.066345504e-08
1.066282323e-08
1.066341513e-08
1.066446688e-08
1.066565419e-08
1.066684555e-08
1.066799174e-08
1.066907746e-08
1.067010083e-08
1.067106478e-08
1.067197371e-08
1.067283207e-08
1.067364403e-08
1.067441337e-08
1.067514341e-08
1.067583729e-08
1.067649765e-08
1.067712731e-08
1.067772954e-08
1.067830938e-08
1.067887642e-08
1.067945264e-08
1.068008391e-08
1.06808641e-08
1.068195075e-08
1.068355615e-08
1.068586521e-08
1.068886264e-08
1.069189305e-08
1.069271267e-08
0.107527358
0.09878671795
0.0748526383
0.05009019759
0.02993175678
0.01471848178
0.00456960174
0.0006434319605
5.705784068e-05
8.469943287e-06
2.146889981e-06
8.476809775e-07
4.428828754e-07
2.678713617e-07
1.729144364e-07
1.145738179e-07
7.688492512e-08
5.231240982e-08
3.632355865e-08
2.609084077e-08
1.968521333e-08
1.577529592e-08
1.345909128e-08
1.213386682e-08
1.140527816e-08
1.10215411e-08
1.08280914e-08
1.073475499e-08
1.069177498e-08
1.067312023e-08
1.066579046e-08
1.066354344e-08
1.066348166e-08
1.066430118e-08
1.06654336e-08
1.066664023e-08
1.066782632e-08
1.066895797e-08
1.067002615e-08
1.067103143e-08
1.067197763e-08
1.067286937e-08
1.067371117e-08
1.067450723e-08
1.067526133e-08
1.067597697e-08
1.067665719e-08
1.067730526e-08
1.067792518e-08
1.067852361e-08
1.067911304e-08
1.06797203e-08
1.068039892e-08
1.068124985e-08
1.068242816e-08
1.068412589e-08
1.068648605e-08
1.068943439e-08
1.069228204e-08
1.069271839e-08
0.1063395095
0.1037743609
0.08307371209
0.05752185629
0.03490536882
0.01758269696
0.006145797071
0.001185660672
0.0001050946851
1.36584744e-05
2.968390182e-06
1.082028526e-06
5.490590827e-07
3.28915094e-07
2.117883514e-07
1.40353743e-07
9.418280028e-08
6.388776875e-08
4.395735219e-08
3.102671954e-08
2.280564202e-08
1.769844888e-08
1.460928355e-08
1.279825492e-08
1.177421036e-08
1.12178801e-08
1.092815058e-08
1.078361003e-08
1.071461182e-08
1.068327901e-08
1.067000993e-08
1.066509156e-08
1.066388701e-08
1.066425476e-08
1.066523663e-08
1.066641818e-08
1.066762777e-08
1.066879902e-08
1.066990977e-08
1.067095565e-08
1.067193891e-08
1.067286397e-08
1.067373558e-08
1.067455836e-08
1.067533646e-08
1.067607376e-08
1.067677374e-08
1.067744026e-08
1.067807829e-08
1.067869648e-08
1.067931069e-08
1.067995258e-08
1.068068261e-08
1.068160646e-08
1.068287362e-08
1.068465446e-08
1.068705291e-08
1.068994561e-08
1.069261784e-08
1.069265409e-08
0.1038395639
0.1066932776
0.08979315846
0.06395105397
0.03859688216
0.019092013
0.007003380386
0.001747114279
0.0001948478227
2.466086876e-05
4.438718908e-06
1.425092788e-06
6.868999175e-07
4.030585927e-07
2.572036951e-07
1.698201222e-07
1.137727291e-07
7.697108138e-08
5.262223836e-08
3.667617801e-08
2.642258597e-08
1.996269694e-08
1.599150056e-08
1.361816678e-08
1.224452378e-08
1.147756959e-08
1.106577852e-08
1.085354701e-08
1.07486743e-08
1.069914042e-08
1.067700851e-08
1.066794439e-08
1.066488361e-08
1.066446658e-08
1.066514743e-08
1.066623792e-08
1.06674429e-08
1.06686421e-08
1.06697907e-08
1.067087528e-08
1.06718948e-08
1.067285279e-08
1.067375399e-08
1.067460328e-08
1.067540518e-08
1.067616392e-08
1.067688356e-08
1.067756872e-08
1.067822557e-08
1.06788651e-08
1.067950677e-08
1.068018706e-08
1.068097209e-08
1.068196953e-08
1.068332123e-08
1.068517511e-08
1.068759857e-08
1.069042792e-08
1.069292911e-08
1.069257754e-08
0.1001406895
0.1075212672
0.09405505057
0.06758825446
0.03923212322
0.01826959073
0.006705991367
0.001990178072
0.0003235879805
4.705234482e-05
7.415935285e-06
2.006651506e-06
8.849967296e-07
4.993320623e-07
3.127663478e-07
2.04610362e-07
1.364291075e-07
9.191031954e-08
6.244799791e-08
4.308239543e-08
3.052497044e-08
2.254260543e-08
1.758352267e-08
1.457960331e-08
1.281024066e-08
1.180016608e-08
1.124320395e-08
1.094736791e-08
1.079629569e-08
1.072230451e-08
1.068775908e-08
1.067264683e-08
1.066675972e-08
1.066508384e-08
1.066524044e-08
1.066613813e-08
1.066729344e-08
1.066850107e-08
1.066967917e-08
1.067079885e-08
1.067185304e-08
1.067284314e-08
1.067377341e-08
1.06746488e-08
1.067547412e-08
1.067625406e-08
1.067699331e-08
1.06776974e-08
1.067837401e-08
1.067903667e-08
1.067970855e-08
1.068043068e-08
1.068127348e-08
1.068234432e-08
1.068377547e-08
1.068569219e-08
1.068812824e-08
1.06908876e-08
1.069322365e-08
1.069251269e-08
0.0970483239
0.1065501767
0.09392207636
0.06497558521
0.03450801093
0.01478727621