/*--------------------------------*- C++ -*----------------------------------*\
  =========                 |
  \\      /  F ield         | OpenFOAM: The Open Source CFD Toolbox
   \\    /   O peration     | Website:  https://openfoam.org
    \\  /    A nd           | Version:  10
     \\/     M anipulation  |
\*---------------------------------------------------------------------------*/
FoamFile
{
    format      ascii;
    class       volScalarField;
    location    "0.0250188088";
    object      ddt0(rho,CH2OH);
}
// * * * * * * * * * * * * * * * * * * * * * * * * * * * * * * * * * * * * * //

dimensions      [1 -3 -1 0 0 0 0];

internalField   nonuniform List<scalar> 
5170
(
-6.103613947e-38
-6.104089603e-38
-6.104475941e-38
-6.105718905e-38
-6.109627188e-38
-6.153916347e-38
-6.154495995e-38
-6.155329529e-38
-6.156862779e-38
-6.160637038e-38
-6.154201625e-38
-6.154877614e-38
-6.156051171e-38
-6.157662469e-38
-6.161377419e-38
-6.154100665e-38
-6.154914845e-38
-6.156324356e-38
-6.157911209e-38
-6.161677763e-38
-6.154066729e-38
-6.15501867e-38
-6.156579482e-38
-6.158097294e-38
-6.161970004e-38
-6.154038926e-38
-6.155114963e-38
-6.156769314e-38
-6.158222153e-38
-6.162241335e-38
-6.15407307e-38
-6.155235511e-38
-6.156920496e-38
-6.158313245e-38
-6.162495281e-38
-6.154090836e-38
-6.155316099e-38
-6.157000365e-38
-6.158364548e-38
-6.162726176e-38
-6.15415923e-38
-6.15541174e-38
-6.157061863e-38
-6.158409819e-38
-6.163399548e-38
-6.159535469e-38
-6.156967572e-38
-6.15738601e-38
-6.234282871e-38
-3.979561888e-37
-2.534922867e-36
-8.717956318e-37
-2.771878235e-37
-5.583601394e-35
-2.453903647e-32
-1.187301701e-31
-4.586573113e-32
-1.517860237e-32
-4.010759653e-30
-1.793749982e-27
-5.918388974e-27
-2.726650289e-27
-1.110047238e-27
-2.762537291e-25
-1.315218398e-22
-3.062073127e-22
-1.697186737e-22
-8.481531738e-23
-1.76586701e-20
-9.682207276e-18
-1.644972608e-17
-1.105183747e-17
-6.835226066e-18
-9.818821458e-16
-7.156833226e-13
-9.166513921e-13
-7.498057482e-13
-5.851279249e-13
-4.025740203e-11
-5.963350533e-11
-6.842877776e-11
-6.809195361e-11
-6.706047878e-11
-5.971200204e-11
-3.647972192e-11
-3.557797688e-11
-3.513009752e-11
-3.528929423e-11
-3.595339394e-11
-4.226370815e-11
-4.434765394e-11
-4.403562769e-11
-4.362079026e-11
-3.614299291e-11
8.383822442e-12
-4.314788393e-11
-2.737124532e-11
8.880072438e-11
3.748482449e-11
5.489403699e-12
-6.087901735e-17
3.650528714e-17
2.265261576e-16
3.406505167e-17
-2.764279037e-16
1.663575692e-16
5.849273973e-17
1.253490891e-16
1.582326897e-16
-4.876066588e-16
1.637367506e-17
3.132999861e-19
-1.985438988e-17
1.340718258e-17
-1.899921786e-17
2.057997765e-17
-1.045962372e-17
-2.394680475e-17
1.404835704e-17
1.419360807e-15
-2.815610207e-14
-3.338303489e-16
3.243255565e-16
4.433106919e-16
-4.036402535e-15
-1.39255733e-11
4.787560873e-13
-3.463017358e-14
1.042407679e-12
-5.930853606e-11
-6.315992031e-11
6.52320681e-11
-2.176404829e-12
5.393962793e-11
4.619172798e-09
1.784802886e-08
-2.096652443e-10
8.633005363e-11
1.301433523e-08
3.355237783e-09
4.036451199e-09
4.811334422e-09
1.806630697e-08
-3.870963675e-09
-9.988424347e-09
1.85857361e-10
-1.228329892e-08
-7.948304206e-09
4.039644843e-09
-5.16129868e-10
-2.344139012e-10
-4.500562629e-09
-2.74058844e-09
4.094650949e-09
-4.250264301e-10
-8.366825833e-10
7.692909381e-10
-1.03630886e-08
-7.117640239e-10
-1.74805845e-09
-1.562042194e-09
-5.375002248e-10
1.96182762e-11
-1.749561036e-11
-2.847334651e-09
-2.218985604e-09
-6.828648265e-10
-6.625154671e-10
-1.718111634e-09
-3.416020378e-09
-3.413632504e-09
-1.929199626e-09
-1.515534298e-09
-2.987928805e-09
-5.470250391e-10
-1.895478301e-09
-3.081480791e-09
-2.744390197e-09
-4.058071112e-09
-1.991979706e-09
-4.290582707e-10
-3.964005509e-09
-3.915069394e-09
2.733284006e-10
2.426762258e-09
-1.848730734e-09
7.334345508e-11
-6.040857672e-12
-1.989211659e-09
2.164000673e-08
1.791009777e-09
-1.641599182e-09
-1.419211218e-09
1.111722194e-09
-2.205488839e-08
-5.688936119e-07
-2.358909537e-08
-6.269323819e-09
9.567717188e-10
-4.392748438e-09
1.27555694e-10
4.292778388e-14
-4.766649583e-11
3.652365868e-10
-2.214731779e-08
-1.301999395e-11
1.857298613e-12
-7.235845478e-11
1.676724111e-09
6.18625815e-08
1.781516553e-11
-1.819978647e-11
4.44555283e-09
9.475891136e-11
6.430749896e-09
8.180834298e-12
-6.894995435e-11
1.66529872e-11
-1.062954464e-09
-9.627375866e-09
-2.801697307e-12
-6.441471286e-11
-1.053673395e-10
-4.32792167e-09
-5.360495834e-08
-5.865895786e-11
-6.348226183e-11
-1.228007576e-10
-7.140102985e-10
-2.104913057e-09
-4.718117549e-11
-5.610847847e-11
4.191682547e-11
3.758259469e-10
9.13686403e-09
-2.85270127e-11
3.610129931e-09
3.988343815e-11
1.366923117e-09
8.06666007e-09
-7.370494187e-11
7.830528279e-11
-1.330571028e-10
-7.150013301e-11
9.361020337e-09
-3.877266935e-11
-6.522414941e-12
-3.159536728e-10
-2.810267095e-09
-1.284910744e-08
-4.585599044e-11
-1.586058574e-10
-1.773017857e-09
-9.872935069e-09
1.428969612e-08
-1.544176983e-11
-8.970567648e-11
-8.300675349e-10
-8.26148579e-09
-6.576968876e-08
1.285174936e-10
1.464409217e-10
1.282366855e-09
5.778948734e-09
-7.392568763e-09
4.065524598e-12
1.327757279e-10
1.100930357e-09
6.255720498e-09
2.363945772e-08
6.278364485e-11
3.74209698e-10
2.210399105e-09
1.05789867e-08
5.501895153e-08
2.008242662e-11
4.898122169e-11
3.491039964e-10
2.371277989e-09
6.260621311e-09
-1.062283351e-09
-4.310878265e-09
1.579506604e-09
-1.39831378e-08
-2.248221832e-07
-2.549859267e-09
-1.179461315e-08
-7.160758683e-08
-5.975049171e-08
-1.090819349e-07
6.140976002e-09
4.955480899e-08
-1.465574423e-08
1.708471141e-07
3.478877286e-07
5.611271162e-09
9.013170332e-09
1.597819378e-08
9.869680753e-08
4.752506016e-07
4.063130617e-09
9.108251383e-09
2.869239457e-08
1.017910459e-07
3.624016732e-07
5.866566074e-09
1.049893348e-08
2.459618975e-08
6.062200352e-08
1.508875842e-07
8.094382117e-09
1.065004064e-08
1.737495345e-08
3.104948852e-08
5.731178935e-08
8.713114685e-09
9.021554452e-09
6.005375992e-09
1.315533377e-08
1.940600268e-08
2.839661164e-09
3.04047335e-09
4.176259339e-09
3.343079157e-09
5.117442861e-09
8.35887666e-10
6.162880604e-10
6.587306105e-10
1.108743296e-09
1.038412247e-09
2.015285611e-10
2.014930941e-10
1.988357415e-10
2.14539028e-10
2.07358003e-10
5.575467095e-11
5.650680653e-11
5.630171706e-11
5.502488989e-11
5.367380264e-11
1.866165432e-11
1.855379059e-11
1.935295719e-11
1.658976438e-11
1.315455856e-11
7.07807291e-12
6.865157701e-12
5.509532612e-12
4.988700937e-12
4.296897235e-12
5.358675213e-12
5.477868367e-12
5.42669985e-12
2.755293591e-12
2.023034914e-12
8.105691352e-13
8.296509075e-13
8.610986319e-13
8.444628192e-13
7.849172538e-13
2.621355433e-13
2.60243824e-13
2.724608321e-13
2.61649703e-13
2.349666002e-13
-6.264250269e-15
-9.229837769e-15
-1.65652219e-14
-2.79344724e-14
-4.28883895e-14
-1.523471458e-13
-1.836999198e-13
-1.915202655e-13
-2.037532478e-13
-2.235701045e-13
-2.91740881e-13
-2.960335266e-13
-3.05995575e-13
-3.199183473e-13
-3.287322603e-13
-3.107023718e-13
-3.154498228e-13
-3.260900672e-13
-3.383653602e-13
-3.564152554e-13
-1.823517563e-13
-1.880279486e-13
-1.873844742e-13
-2.022765916e-13
-2.218595858e-13
2.756874163e-14
2.430355173e-14
1.471916455e-14
-1.653323913e-15
1.236379324e-15
2.103371987e-13
2.071802142e-13
2.472708485e-13
2.040508525e-13
1.854811275e-13
1.236853973e-13
1.236864374e-13
1.271783284e-13
1.41442522e-13
1.943738016e-13
3.272410073e-13
3.311032099e-13
3.385970997e-13
3.53693179e-13
3.888427691e-13
1.301404264e-13
6.165900211e-14
9.159747907e-14
7.569055568e-14
8.114713074e-14
3.61321963e-14
4.780993949e-14
7.054176067e-14
8.161283267e-14
3.854238548e-14
2.223554818e-14
-9.717024182e-15
3.648301792e-14
1.313176122e-13
1.772274966e-13
8.716677075e-14
8.608427243e-14
7.954876848e-14
8.798352717e-14
5.942403993e-14
1.385739161e-14
5.630539271e-14
2.744831748e-14
-1.020401819e-13
-2.668529715e-13
-8.566304321e-14
-8.615335726e-14
-8.544225125e-14
-8.306894564e-14
-8.19517921e-14
-6.905290929e-14
-7.053715275e-14
-7.189252207e-14
-7.081151035e-14
-6.144350889e-14
-5.525691533e-14
-5.613490801e-14
-6.105784164e-14
-5.757666362e-14
-4.254454483e-14
-2.130793488e-13
-1.062218684e-13
1.583324811e-13
3.030819174e-13
5.831420289e-14
-3.240032035e-13
-3.254697944e-13
-3.252344908e-13
-3.20848419e-13
-3.03176955e-13
-3.646337475e-13
-3.64872501e-13
-3.616348531e-13
-3.531489535e-13
-3.294086457e-13
-3.822968463e-13
-3.827351472e-13
-3.800826348e-13
-3.727340812e-13
-3.504174895e-13
-1.988327232e-13
-1.964642932e-13
-1.905769529e-13
-1.814541345e-13
-1.691059037e-13
-2.140605499e-13
-2.139745843e-13
-2.12381525e-13
-2.064025341e-13
-1.994684783e-13
-4.874436293e-13
-4.844551826e-13
-4.756369918e-13
-4.607251808e-13
-4.336888883e-13
-5.562697258e-13
-5.525770858e-13
-5.42120063e-13
-5.249248607e-13
-4.948862067e-13
-7.030907762e-13
-6.994155848e-13
-6.889084404e-13
-6.712085657e-13
-6.393201667e-13
-9.754662368e-13
-9.725019828e-13
-9.594777635e-13
-9.269334605e-13
-8.718731395e-13
-6.837633446e-13
-6.694539573e-13
-6.613742902e-13
-6.292062066e-13
-5.94771079e-13
-6.047044903e-13
-6.002776458e-13
-5.913539041e-13
-5.765482447e-13
-5.606930753e-13
-1.629747833e-13
-2.146763838e-13
-4.196833725e-13
-9.92865977e-13
-1.894412081e-12
3.553910141e-13
3.539022157e-13
3.546926129e-13
3.619020241e-13
3.755795229e-13
-1.025209433e-13
-9.330293006e-14
-6.674347266e-14
-9.790212031e-15
8.597989186e-14
-6.942666887e-13
-6.78546893e-13
-6.411271343e-13
-5.778283396e-13
-4.877795559e-13
1.079015355e-12
1.124937685e-12
1.233601776e-12
1.327459785e-12
1.278929828e-12
-2.147060719e-12
-2.102445959e-12
-2.044102387e-12
-2.027854787e-12
-2.13109924e-12
-3.056114753e-12
-2.984467281e-12
-2.909744979e-12
-2.921542549e-12
-3.306475493e-12
-2.794785253e-12
-2.727002257e-12
-2.675478544e-12
-2.728751469e-12
-3.156291366e-12
-3.448615664e-06
-8.70877855e-08
-1.819092256e-09
-7.386601353e-08
-7.679183698e-09
-3.196399029e-07
2.517664763e-07
-1.987780779e-08
5.902670859e-08
-1.855503878e-08
3.102659657e-07
-2.1336862e-07
-1.568559618e-07
3.106153391e-08
-5.247883591e-08
-3.254092187e-08
-4.98136966e-08
-5.61929903e-07
-2.42745981e-07
1.442568251e-06
9.673123656e-07
3.075056088e-07
9.120491018e-08
2.62065503e-08
7.012078098e-09
1.062872107e-09
2.232097991e-10
5.404287958e-11
7.279553256e-12
3.656302539e-12
1.967530127e-12
7.406758689e-13
2.224208887e-13
-5.58418095e-14
-2.417148624e-13
-3.208489158e-13
-3.808353008e-13
-2.371974308e-13
-5.97586804e-15
1.225507312e-13
3.494160353e-13
4.418307429e-13
7.698852925e-14
2.003637834e-15
-9.30991632e-14
4.552925391e-15
1.960050523e-14
-5.997701738e-14
-5.303626731e-14
-9.384311172e-14
-3.116978708e-13
-2.65271035e-13
-2.91355586e-13
-3.118467651e-13
-1.581580122e-13
-2.277796767e-13
-3.975368711e-13
-4.558540063e-13
-5.968028997e-13
-7.767096741e-13
-6.398218659e-13
-6.123663946e-13
3.223133667e-13
2.589564556e-13
4.58081479e-15
-5.839996411e-13
8.168103464e-13
-2.158702862e-12
-3.557346545e-12
-3.392264938e-12
-1.748644305e-07
-3.870110849e-09
-4.80194502e-10
-1.835744259e-09
-3.759855412e-10
-9.775404543e-08
2.562575052e-07
-1.102897199e-07
-5.492621958e-10
8.380491846e-11
-7.211423283e-09
-1.10597345e-07
1.751440617e-09
5.438844898e-09
1.42062397e-09
-8.208467916e-08
-2.055185314e-06
-1.512338565e-05
-3.338053615e-07
-8.195781603e-08
-2.326565262e-07
-1.346723882e-06
-4.588089362e-05
-1.840416473e-06
-4.359082904e-08
3.322496459e-07
6.991726242e-06
4.537480855e-05
5.209555547e-06
1.056098022e-07
3.778090109e-09
-1.352776427e-06
-1.127203368e-05
-9.587146886e-07
8.98734919e-08
9.412827009e-08
2.974259707e-06
5.244743104e-05
-7.732018886e-06
-1.04619782e-06
1.877803135e-07
-4.609657946e-07
-2.234051065e-05
-0.0003367657829
-2.109252261e-05
4.808830045e-08
1.827902069e-06
1.53514706e-05
0.0002220103282
1.447623389e-05
-5.708048256e-07
4.347945666e-08
-1.927419586e-06
1.485540979e-05
1.47711933e-06
2.551480067e-07
-3.914687746e-07
2.475518381e-06
5.397108012e-05
-0.0001339992151
2.184648227e-07
-6.551154604e-06
-6.46476985e-07
1.490440208e-06
-1.10547693e-05
7.436656029e-08
2.350121654e-06
3.056092234e-07
5.742827833e-07
-1.497702418e-06
7.985961112e-08
2.623869534e-06
2.043979132e-07
5.178856968e-07
-3.297630927e-05
-3.22664938e-07
2.350596647e-06
1.58486641e-09
2.834527755e-07
3.430370599e-05
2.56719749e-07
-1.044052837e-06
-6.437675219e-07
-5.538692596e-06
-5.323630223e-05
-3.641057251e-07
-1.12795351e-06
-4.759305929e-06
-1.799163416e-05
-7.451631487e-05
-6.136162783e-07
-2.250549191e-06
-6.268671013e-06
7.733718694e-06
0.0003312984859
3.719385266e-06
1.319710511e-05
-1.125987712e-05
-0.000658908372
-0.006547069491
2.563755193e-06
1.136499229e-05
3.761900832e-05
6.276481415e-05
-0.0002562136615
6.832056881e-07
2.476148396e-06
7.685970464e-06
1.719281963e-05
7.032162057e-06
1.608594697e-07
4.133694838e-07
1.012599885e-06
2.062456379e-06
2.018912199e-06
3.886145381e-08
7.075817878e-08
1.239561395e-07
1.985298235e-07
2.049111105e-07
8.074942433e-09
1.190663747e-08
1.585608508e-08
1.966552083e-08
1.835685762e-08
1.361347015e-09
1.638325804e-09
1.858185675e-09
1.894967967e-09
1.588440581e-09
2.475947527e-10
2.513672503e-10
2.863445357e-10
2.472485859e-10
2.087226021e-10
5.843077026e-11
5.636542469e-11
6.123407914e-11
3.380296083e-11
-6.645107461e-12
3.341514804e-12
1.064885428e-11
7.715645864e-12
1.245242314e-11
2.135914299e-12
2.619510309e-12
1.25787426e-11
1.552422259e-13
3.462383253e-12
1.716439579e-12
1.83788272e-12
1.840601168e-12
1.207218829e-12
1.616676303e-12
1.082687555e-12
7.281930209e-13
7.240373044e-13
1.537016224e-13
3.43295451e-13
4.803327075e-13
2.073094706e-13
1.8763086e-13
1.467142039e-13
4.42137385e-14
-5.695096806e-14
-8.445270046e-14
-7.811109041e-14
-1.249108215e-13
-1.822931774e-13
-2.508790053e-13
-2.835298386e-13
-3.167526973e-13
-3.401838224e-13
-3.517485197e-13
-4.212820503e-13
-3.123929771e-13
-4.565031472e-13
-3.957685991e-13
-5.311556897e-13
-6.401675495e-13
-4.024830982e-13
-5.644307916e-13
-5.956946218e-13
-6.190533642e-13
-4.996554021e-13
-2.5219911e-13
-2.901345093e-13
-5.430998528e-13
-3.887474707e-13
-3.195817243e-13
-3.995091886e-14
-2.15830205e-13
-2.911942978e-13
-4.167965619e-14
2.604098903e-14
9.540147543e-14
2.174865488e-14
2.806535233e-13
4.22527621e-13
5.721839688e-13
4.446509174e-13
4.68717715e-13
5.267242496e-13
3.471874643e-13
4.663687106e-13
4.509335269e-13
2.887683153e-13
2.711808014e-13
4.131720125e-13
3.085283357e-13
1.838057294e-13
2.263130305e-13
2.41755543e-13
1.444429522e-13
1.504208812e-13
-8.67920277e-15
1.013860939e-14
2.259290869e-14
-1.82965339e-14
-4.071220595e-14
2.326570366e-14
6.808404177e-14
2.071127417e-14
-2.674013732e-14
-2.052612772e-13
8.535253544e-15
-3.199608887e-14
-1.141352955e-13
2.283568325e-13
-8.35064118e-14
3.258275779e-13
-3.266183543e-13
-7.324077164e-14
-8.003805492e-14
-9.700146661e-14
-9.006310888e-14
-9.250352155e-14
-8.785954226e-14
-8.557357811e-14
-9.395290163e-14
-7.253605839e-14
-7.467254076e-14
-1.091513591e-13
-2.2785625e-13
9.23756809e-14
-8.304793317e-14
2.710552658e-13
-2.940954533e-14
-1.911407482e-13
-1.89987323e-13
-4.193389251e-13
-1.305858854e-13
-3.827873129e-13
-2.865742385e-13
-2.908306614e-13
-3.158325917e-13
-3.207154716e-13
-3.049269283e-13
-2.963601393e-13
-2.906126524e-13
-3.421770798e-13
-3.356023505e-13
-3.217044629e-13
-2.994217617e-13
-8.051756641e-14
-3.520475864e-13
-1.302211237e-13
-9.868702717e-14
-8.809587397e-14
-7.611364429e-14
-1.325183729e-13
-1.253670897e-13
-1.277199891e-13
-2.895344007e-13
-3.180560085e-13
-3.540890216e-13
-4.056107904e-13
-3.515215585e-13
-3.325075048e-13
-3.186223948e-13
-4.254058996e-13
-4.009705731e-13
-3.702923329e-13
-3.427477948e-13
-3.232600872e-13
-4.791675566e-13
-4.485877494e-13
-4.10159345e-13
-3.724508043e-13
-3.4513071e-13
-6.127744295e-13
-5.628395732e-13
-5.012595664e-13
-5.277186889e-13
-4.559309243e-13
-8.012830109e-13
-7.599405261e-13
-3.406973287e-13
-3.073917169e-13
-2.659149652e-13
-5.396983732e-13
-4.525209737e-13
-3.925720773e-13
-3.173360163e-13
-1.747693397e-13
-5.436748377e-13
-4.402204673e-13
-1.257701797e-13
-1.860465285e-13
-3.473068752e-12
3.057302724e-12
-4.346640584e-12
3.665664941e-13
5.795725313e-13
6.190685359e-13
3.06227952e-13
3.363570567e-13
4.592427037e-13
5.719749312e-13
6.843628456e-13
8.251190607e-14
1.325050191e-13
2.447149449e-13
3.650599791e-13
5.01564089e-13
-5.290031046e-13
-4.963889037e-13
-1.273497492e-13
2.221515618e-12
2.681448979e-12
1.497515935e-12
1.624479708e-12
-1.699247279e-12
-1.01678968e-12
-3.061022626e-13
-1.568919599e-12
-2.209056761e-12
-1.872548662e-12
-1.636409143e-12
-1.372523815e-12
-2.466037311e-12
-1.943586626e-12
-1.438183637e-12
-1.110175551e-12
-1.13120424e-12
-2.42676433e-12
-5.631557007e-12
-4.136393925e-12
-3.788273517e-12
-3.692735842e-12
-7.7086528e-12
-4.306427011e-12
-3.578482553e-13
-9.671978478e-14
-1.13179922e-13
-1.148811497e-13
-1.15373346e-13
-1.154177581e-13
-1.152917921e-13
-1.151031198e-13
-1.148964065e-13
-1.146883769e-13
-1.144840371e-13
-1.142959256e-13
-1.143361639e-13
-1.2008123e-13
-1.197904333e-13
-1.137806253e-13
-1.134055803e-13
-1.132379761e-13
-1.13081147e-13
-1.129285822e-13
-1.127802127e-13
-1.12636218e-13
-1.124966163e-13
-1.123613397e-13
-1.122303114e-13
-1.121034209e-13
-1.11980463e-13
-1.118612907e-13
-1.117459066e-13
-1.116343278e-13
-1.115264555e-13
-1.114221232e-13
-1.113211951e-13
-1.112236066e-13
-1.111292596e-13
-1.110381395e-13
-1.109500776e-13
-1.108648044e-13
-1.107821883e-13
-1.107023385e-13
-1.106253038e-13
-1.105510254e-13
-1.104794002e-13
-1.104103263e-13
-1.103438101e-13
-1.102797761e-13
-1.102182274e-13
-1.101590473e-13
-1.101023435e-13
-1.100479029e-13
-1.09995762e-13
-1.099458737e-13
-1.098981732e-13
-1.09850478e-13
-1.097854543e-13
-1.096066883e-13
-1.091942186e-13
-1.087316414e-13
-3.273516039e-11
-2.193923248e-11
9.280872673e-13
-2.295469356e-14
-8.614548815e-14
-8.866109947e-14
-9.014998085e-14
-9.087546771e-14
-9.111171357e-14
-9.109579154e-14
-9.094511462e-14
-9.072363185e-14
-9.046837596e-14
-9.020326052e-14
-9.013215257e-14
-9.675832671e-14
-9.706380972e-14
-8.947695603e-14
-8.904340944e-14
-8.883210022e-14
-8.862301302e-14
-8.841898029e-14
-8.822046596e-14
-8.802704507e-14
-8.784069016e-14
-8.766083478e-14
-8.748854795e-14
-8.732398535e-14
-8.716605403e-14
-8.701433938e-14
-8.686768185e-14
-8.672587536e-14
-8.658891181e-14
-8.645653495e-14
-8.632806981e-14
-8.620369441e-14
-8.608335238e-14
-8.596685798e-14
-8.585416547e-14
-8.574504086e-14
-8.563931719e-14
-8.553708637e-14
-8.5438576e-14
-8.534345723e-14
-8.525174136e-14
-8.516315361e-14
-8.50778777e-14
-8.499573632e-14
-8.491697191e-14
-8.484101352e-14
-8.476824579e-14
-8.469825161e-14
-8.463103901e-14
-8.456639674e-14
-8.450353867e-14
-8.443303671e-14
-8.430778209e-14
-8.396321632e-14
-8.324908059e-14
-8.256714968e-14
-2.435075685e-11
4.796169636e-11
4.291464982e-14
-8.437003011e-14
-8.477561125e-14
-8.795058685e-14
-9.003013839e-14
-9.132910664e-14
-9.192189389e-14
-9.203377343e-14
-9.182025736e-14
-9.14266172e-14
-9.097320408e-14
-9.054447299e-14
-9.050983313e-14
-9.72757732e-14
-9.767290909e-14
-8.943407791e-14
-8.873461524e-14
-8.843469056e-14
-8.816947286e-14
-8.791893462e-14
-8.768049616e-14
-8.745319929e-14
-8.723588777e-14
-8.702664423e-14
-8.682407328e-14
-8.66280403e-14
-8.643777707e-14
-8.625308859e-14
-8.607351975e-14
-8.58991736e-14
-8.573114832e-14
-8.55692392e-14
-8.541353522e-14
-8.526390393e-14
-8.512033301e-14
-8.498290658e-14
-8.485122215e-14
-8.472538168e-14
-8.46053877e-14
-8.449082968e-14
-8.438100155e-14
-8.427536323e-14
-8.417365545e-14
-8.407562678e-14
-8.398141221e-14
-8.389099321e-14
-8.380430662e-14
-8.372082032e-14
-8.364081476e-14
-8.356399667e-14
-8.349047596e-14
-8.341921897e-14
-8.334747354e-14
-8.325673366e-14
-8.307477511e-14
-8.261588517e-14
-8.180394284e-14
-8.114357465e-14
-3.483129689e-09
-5.692438496e-11
-4.809068405e-13
2.682353771e-13
-6.360202121e-14
-8.748320838e-14
-9.048950123e-14
-9.228079565e-14
-9.322358261e-14
-9.353562263e-14
-9.33921497e-14
-9.296586746e-14
-9.235203052e-14
-9.166174136e-14
-9.137213635e-14
-9.840257302e-14
-9.84669795e-14
-8.978866114e-14
-8.895568246e-14
-8.858775284e-14
-8.827389232e-14
-8.798444025e-14
-8.771399976e-14
-8.745995641e-14
-8.722011758e-14
-8.699274247e-14
-8.677637428e-14
-8.656989228e-14
-8.637235811e-14
-8.618318115e-14
-8.600164597e-14
-8.582741706e-14
-8.565996983e-14
-8.549790754e-14
-8.534142301e-14
-8.519062426e-14
-8.50451478e-14
-8.490520534e-14
-8.477070871e-14
-8.464153414e-14
-8.451770598e-14
-8.439911325e-14
-8.428532785e-14
-8.417601923e-14
-8.407081245e-14
-8.396942293e-14
-8.387212383e-14
-8.377878946e-14
-8.368931046e-14
-8.360337121e-14
-8.352118439e-14
-8.344232422e-14
-8.336687804e-14
-8.32930114e-14
-8.321493539e-14
-8.310526297e-14
-8.28781051e-14
-8.236439397e-14
-8.158129612e-14
-8.102456567e-14
-3.734721707e-09
-1.847062599e-10
3.591340676e-11
-2.208878473e-13
-1.977301799e-13
-5.77602723e-14
-9.011820229e-14
-9.354472096e-14
-9.495370942e-14
-9.543204598e-14
-9.529435535e-14
-9.478790879e-14
-9.405954582e-14
-9.317028719e-14
-9.252490068e-14
-1.001396988e-13
-9.947994721e-14
-9.028698045e-14
-8.926006552e-14
-8.878264362e-14
-8.83990111e-14
-8.806225419e-14
-8.775770324e-14
-8.74777411e-14
-8.721772486e-14
-8.697457889e-14
-8.674591515e-14
-8.652989219e-14
-8.632503869e-14
-8.613020479e-14
-8.594439826e-14
-8.576684102e-14
-8.559682225e-14
-8.543358912e-14
-8.527684495e-14
-8.51262818e-14
-8.498155827e-14
-8.484250892e-14
-8.470892079e-14
-8.458058893e-14
-8.445732411e-14
-8.433908037e-14
-8.422563322e-14
-8.411691238e-14
-8.401270633e-14
-8.391233864e-14
-8.381559888e-14
-8.372262087e-14
-8.363351436e-14
-8.354802179e-14
-8.346610441e-14
-8.338712004e-14
-8.331120426e-14
-8.323556643e-14
-8.315224386e-14
-8.302643753e-14
-8.27629173e-14
-8.221992937e-14
-8.148062695e-14
-8.103962607e-14
-8.982041567e-09
-1.002954629e-09
-2.996780518e-11
-8.469264781e-12
1.829360073e-12
-7.101307117e-14
-8.901622507e-14
-9.306150212e-14
-9.508229559e-14
-9.59590475e-14
-9.611271844e-14
-9.579176611e-14
-9.515275858e-14
-9.42802866e-14
-9.366051238e-14
-1.022190807e-13
-1.009497125e-13
-9.106099961e-14
-8.976275504e-14
-8.910786734e-14
-8.860240589e-14
-8.818399226e-14
-8.782438475e-14
-8.750587851e-14
-8.721774406e-14
-8.695352457e-14
-8.67088634e-14
-8.648064908e-14
-8.626653887e-14
-8.606478021e-14
-8.587390431e-14
-8.569275253e-14
-8.552038367e-14
-8.535597259e-14
-8.51989244e-14
-8.504869191e-14
-8.490485444e-14
-8.47670447e-14
-8.463491143e-14
-8.450812535e-14
-8.438642786e-14
-8.426960598e-14
-8.415741197e-14
-8.40499853e-14
-8.394741008e-14
-8.38491018e-14
-8.375441041e-14
-8.366297971e-14
-8.357570933e-14
-8.349264509e-14
-8.341402909e-14
-8.334010102e-14
-8.326932329e-14
-8.319608283e-14
-8.310785547e-14
-8.296100249e-14
-8.265799336e-14
-8.209398304e-14
-8.1399393e-14
-8.105466279e-14
2.181612666e-10
-4.96317642e-09
-2.610483221e-10
-3.722034066e-12
-3.476552786e-12
-4.372551166e-14
-5.558848123e-14
-9.044029661e-14
-9.450221207e-14
-9.603199022e-14
-9.658085874e-14
-9.652792505e-14
-9.607260533e-14
-9.532054629e-14
-9.488353724e-14
-1.045656881e-13
-1.02909315e-13
-9.200680074e-14
-9.055234918e-14
-8.969642898e-14
-8.901480541e-14
-8.846265856e-14
-8.800785994e-14
-8.762290434e-14
-8.728752558e-14
-8.698845282e-14
-8.671724422e-14
-8.646862471e-14
-8.623880852e-14
-8.602482802e-14
-8.582467588e-14
-8.563674207e-14
-8.545931548e-14
-8.529161072e-14
-8.513262887e-14
-8.498138474e-14
-8.483747418e-14
-8.470037641e-14
-8.456924503e-14
-8.444406394e-14
-8.432439175e-14
-8.42100271e-14
-8.410055995e-14
-8.3995627e-14
-8.38951823e-14
-8.380056214e-14
-8.371218454e-14
-8.36277814e-14
-8.354613153e-14
-8.346714127e-14
-8.339100439e-14
-8.331697063e-14
-8.324375089e-14
-8.316441608e-14
-8.306248227e-14
-8.288775763e-14
-8.254818468e-14
-8.197611091e-14
-8.132740046e-14
-8.106643324e-14
-8.587736421e-08
-2.462487211e-08
-2.300490254e-09
-9.479755899e-11
-3.892981652e-11
-3.432466925e-12
-5.529653789e-13
-4.252030136e-14
-9.205506965e-14
-9.583190669e-14
-9.692308391e-14
-9.71513889e-14
-9.686027285e-14
-9.620633443e-14
-9.595241457e-14
-1.066803775e-13
-1.048581156e-13
-9.310343773e-14
-9.15721607e-14
-9.055534387e-14
-8.969607546e-14
-8.898606357e-14
-8.840615731e-14
-8.792701199e-14
-8.752194234e-14
-8.717107259e-14
-8.686051741e-14
-8.658113135e-14
-8.632682009e-14
-8.609323449e-14
-8.587712744e-14
-8.567597794e-14
-8.548789961e-14
-8.531136305e-14
-8.514511338e-14
-8.498811729e-14
-8.483953388e-14
-8.469863581e-14
-8.456483253e-14
-8.44376572e-14
-8.431688667e-14
-8.420207799e-14
-8.409269672e-14
-8.39881181e-14
-8.388788365e-14
-8.379185128e-14
-8.37003411e-14
-8.361305107e-14
-8.352952564e-14
-8.344894473e-14
-8.337081568e-14
-8.32938031e-14
-8.321608851e-14
-8.312912403e-14
-8.301213368e-14
-8.28086496e-14
-8.243826579e-14
-8.186644477e-14
-8.126149116e-14
-8.10764429e-14
2.029967705e-07
3.574809678e-08
-5.658415786e-09
-5.059111599e-10
-2.396505998e-11
-1.648763548e-11
3.304254204e-12
3.851204635e-14
-7.510540205e-14
-9.432773681e-14
-9.717475042e-14
-9.775172909e-14
-9.760810232e-14
-9.702966659e-14
-9.694296088e-14
-1.085612134e-13
-1.066472945e-13
-9.41606878e-14
-9.260493807e-14
-9.150023354e-14
-9.051046679e-14
-8.965799242e-14
-8.894666011e-14
-8.836034796e-14
-8.787326777e-14
-8.746055696e-14
-8.710268062e-14
-8.678601309e-14
-8.650144959e-14
-8.62427531e-14
-8.600547378e-14
-8.578627772e-14
-8.558262844e-14
-8.539250753e-14
-8.521432925e-14
-8.504678833e-14
-8.488883004e-14
-8.473957379e-14
-8.459829299e-14
-8.446437213e-14
-8.433724348e-14
-8.421645904e-14
-8.410160444e-14
-8.399224226e-14
-8.38879786e-14
-8.378826367e-14
-8.369282161e-14
-8.360141743e-14
-8.351414681e-14
-8.343053657e-14
-8.33499185e-14
-8.326992967e-14
-8.318757719e-14
-8.309214974e-14
-8.295830007e-14
-8.272817476e-14
-8.233526823e-14
-8.176913405e-14
-8.120123144e-14
-8.108703671e-14
8.653208761e-07
3.261108767e-10
-3.08187533e-08
-2.285198669e-09
-9.74574483e-11
6.547248987e-13
-2.010088297e-12
-4.031560284e-13
-2.147629833e-14
-9.355038008e-14
-9.763060199e-14
-9.8609491e-14
-9.856975335e-14
-9.798554181e-14
-9.797866695e-14
-1.103743962e-13
-1.083943421e-13
-9.519810851e-14
-9.356984287e-14
-9.246589008e-14
-9.138567456e-14
-9.041124163e-14
-8.957204385e-14
-8.886961794e-14
-8.82871656e-14
-8.780025071e-14
-8.738536446e-14
-8.702419344e-14
-8.670390971e-14
-8.64158123e-14
-8.615383015e-14
-8.591357778e-14
-8.569175561e-14
-8.548579225e-14
-8.529369609e-14
-8.511387004e-14
-8.494502325e-14
-8.478608799e-14
-8.463616095e-14
-8.449448418e-14
-8.436037039e-14
-8.423325949e-14
-8.411264906e-14
-8.39980419e-14
-8.388907219e-14
-8.378525663e-14
-8.36862845e-14
-8.359157348e-14
-8.350083996e-14
-8.341358483e-14
-8.332942264e-14
-8.324567502e-14
-8.315815664e-14
-8.305313234e-14
-8.290119868e-14
-8.26475456e-14
-8.223851428e-14
-8.168194133e-14
-8.114598401e-14
-8.10969473e-14
1.21361246e-07
3.181171583e-06
-4.391470603e-08
-5.730799835e-09
-3.08681962e-10
1.318087479e-11
4.18007165e-12
4.05264279e-12
-9.597907103e-13
-8.36015991e-14
-9.772369038e-14
-9.934916808e-14
-9.951638688e-14
-9.901959308e-14
-9.917977789e-14
-1.123606258e-13
-1.102213107e-13
-9.629749273e-14
-9.455474216e-14
-9.348095362e-14
-9.233038235e-14
-9.124847742e-14
-9.028594442e-14
-8.946080166e-14
-8.876979643e-14
-8.819430324e-14
-8.77101813e-14
-8.729528109e-14
-8.69325688e-14
-8.661007314e-14
-8.631951787e-14
-8.605510758e-14
-8.581260371e-14
-8.558878901e-14
-8.538118133e-14
-8.518778703e-14
-8.50070027e-14
-8.483750405e-14
-8.467817167e-14
-8.452808922e-14
-8.438643436e-14
-8.425253022e-14
-8.412579261e-14
-8.400564888e-14
-8.389170262e-14
-8.378337956e-14
-8.368039102e-14
-8.358217219e-14
-8.348832101e-14
-8.339793675e-14
-8.331026247e-14
-8.322207109e-14
-8.312807747e-14
-8.30119489e-14
-8.284171885e-14
-8.256704573e-14
-8.214639786e-14
-8.160196601e-14
-8.109500878e-14
-8.111428675e-14
-8.832678584e-08
-1.817559115e-08
-7.350217455e-08
-3.214260705e-08
-1.469971701e-09
6.351955954e-11
1.008241453e-11
-9.798974494e-13
-5.926964736e-14
-4.352151983e-14
-9.73524873e-14
-9.973084748e-14
-1.002464747e-13
-9.998703763e-14
-1.004247556e-13
-1.14529477e-13
-1.121281702e-13
-9.75028773e-14
-9.561854597e-14
-9.451871999e-14
-9.334860055e-14
-9.217372644e-14
-9.109306717e-14
-9.014204453e-14
-8.933139964e-14
-8.865251989e-14
-8.80848659e-14
-8.760459674e-14
-8.71907517e-14
-8.682751617e-14
-8.650371072e-14
-8.621156256e-14
-8.594554575e-14
-8.570159606e-14
-8.547661138e-14
-8.52681316e-14
-8.507417403e-14
-8.489310507e-14
-8.472356759e-14
-8.456442467e-14
-8.441471591e-14
-8.427362671e-14
-8.414049014e-14
-8.401464316e-14
-8.389558576e-14
-8.378263999e-14
-8.36754632e-14
-8.357341656e-14
-8.347610966e-14
-8.338247847e-14
-8.329127578e-14
-8.319838217e-14
-8.309669292e-14
-8.296771582e-14
-8.277975423e-14
-8.24865792e-14
-8.205769578e-14
-8.152677627e-14
-8.104634959e-14
-8.11321729e-14
3.064551814e-07
6.101640935e-08
-4.450917864e-08
-1.359727784e-07
-3.527218734e-09
4.091497857e-10
5.172890793e-11
1.29429476e-11
3.116507167e-12
5.196439377e-14
-9.569854367e-14
-9.95766109e-14
-1.00640138e-13
-1.007371898e-13
-1.016260453e-13
-1.168132144e-13
-1.139728884e-13
-9.876368544e-14
-9.674154759e-14
-9.559576582e-14
-9.441968736e-14
-9.316629376e-14
-9.197878964e-14
-9.090693443e-14
-8.997301866e-14
-8.918021807e-14
-8.85156406e-14
-8.795731404e-14
-8.748208863e-14
-8.707048256e-14
-8.670789587e-14
-8.638396813e-14
-8.609137742e-14
-8.582489574e-14
-8.558058841e-14
-8.535542437e-14
-8.51469699e-14
-8.495323864e-14
-8.477260895e-14
-8.460368856e-14
-8.44453655e-14
-8.429666069e-14
-8.415678891e-14
-8.402495374e-14
-8.390052451e-14
-8.378277908e-14
-8.36712946e-14
-8.356534722e-14
-8.346446014e-14
-8.336724939e-14
-8.327192137e-14
-8.317373071e-14
-8.306371648e-14
-8.292130911e-14
-8.271622795e-14
-8.240697267e-14
-8.197320281e-14
-8.145689807e-14
-8.10011583e-14
-8.116544082e-14
-3.28319934e-07
-4.968805306e-08
-3.208976467e-06
-4.018981762e-07
1.928055061e-09
2.379386866e-09
2.493177951e-10
4.64798379e-11
1.378267262e-11
-2.141032133e-13
-9.370603874e-14