/*--------------------------------*- C++ -*----------------------------------*\
  =========                 |
  \\      /  F ield         | OpenFOAM: The Open Source CFD Toolbox
   \\    /   O peration     | Website:  https://openfoam.org
    \\  /    A nd           | Version:  10
     \\/     M anipulation  |
\*---------------------------------------------------------------------------*/
FoamFile
{
    format      ascii;
    class       volScalarField;
    location    "0.0250188088";
    object      ddt0(rho,C2H6);
}
// * * * * * * * * * * * * * * * * * * * * * * * * * * * * * * * * * * * * * //

dimensions      [1 -3 -1 0 0 0 0];

internalField   nonuniform List<scalar> 
5170
(
3.319401489e-07
3.328156016e-07
3.332983562e-07
3.339872376e-07
1.334336148e-12
3.297663653e-07
3.307710404e-07
3.315517327e-07
3.351662449e-07
3.371830701e-07
3.258475015e-07
3.267853356e-07
3.275838079e-07
3.284608196e-07
3.373405179e-07
3.310572572e-07
3.31985895e-07
3.32768419e-07
3.32576137e-07
3.342949015e-07
3.386040683e-07
3.395789432e-07
3.403224099e-07
3.401661075e-07
3.402296214e-07
3.456948258e-07
3.469856914e-07
3.479691047e-07
3.474136498e-07
3.482343809e-07
3.507754462e-07
3.522025404e-07
3.536493851e-07
3.532182983e-07
3.551791062e-07
3.539254844e-07
3.55354029e-07
3.566547401e-07
3.575652643e-07
3.600922537e-07
3.553511697e-07
3.569774189e-07
3.584422223e-07
3.59599712e-07
3.627738839e-07
3.554220405e-07
3.572632796e-07
3.597147881e-07
3.599205466e-07
3.634881954e-07
3.552276233e-07
3.568709218e-07
3.589677912e-07
3.598699754e-07
3.6354388e-07
3.552435742e-07
3.566591546e-07
3.573169135e-07
3.596865482e-07
3.636469014e-07
3.548050571e-07
3.564112956e-07
3.568506818e-07
3.592273518e-07
3.636487127e-07
3.546002573e-07
3.563502013e-07
3.574903977e-07
3.590243013e-07
3.640078351e-07
3.549302117e-07
3.566437458e-07
3.583442091e-07
3.594938714e-07
3.649793996e-07
3.559488434e-07
3.575012923e-07
3.592043266e-07
3.607386089e-07
3.663543118e-07
3.575631283e-07
3.588496558e-07
3.602286646e-07
3.625646852e-07
3.68205402e-07
3.593516632e-07
3.607016703e-07
3.615452865e-07
3.642298484e-07
3.703414124e-07
3.611572981e-07
3.625013729e-07
3.62791863e-07
3.667989815e-07
3.752441695e-07
3.629502974e-07
3.760328083e-07
4.520991341e-07
7.130937304e-07
2.185783301e-06
-5.419444637e-25
-6.667530766e-25
7.254782686e-25
7.126185155e-25
7.10706342e-25
-1.863367791e-26
-1.143796227e-26
-2.061962465e-25
-9.881487567e-26
4.792217273e-25
-6.150223164e-24
7.266943678e-24
-2.342729125e-24
2.193830698e-23
6.327509971e-22
-6.288901352e-21
-1.670638191e-21
7.040056459e-23
2.547208e-20
1.113017675e-18
5.930880602e-17
7.082638516e-18
2.726882366e-19
1.277856082e-16
-1.22532217e-14
3.276524186e-14
1.452470642e-15
1.050160332e-14
-6.504394161e-15
-5.110844228e-14
6.795039053e-14
-7.293250024e-14
-1.024669854e-14
6.013139896e-14
-1.47598719e-13
2.999081332e-14
6.162502044e-14
7.191860338e-14
-1.966450166e-13
-3.506875734e-13
-5.236123163e-13
-6.98167598e-14
2.527160796e-13
-1.796256752e-12
-1.498496868e-12
2.756395886e-12
1.598534488e-12
1.494000128e-12
5.672604654e-12
2.097534077e-11
-5.234699592e-13
2.279473509e-12
3.337536488e-11
-2.707763014e-12
7.833411562e-12
1.496718245e-11
3.439935178e-12
4.015000171e-11
7.233512157e-11
1.365733527e-11
3.606741123e-11
1.189047152e-10
6.406744978e-11
1.223327641e-10
1.574220337e-11
3.488449459e-11
5.25271506e-10
-7.783797245e-10
-1.091297337e-14
9.595522216e-12
-1.296899744e-10
-3.517019456e-08
1.116913356e-09
-2.933300725e-08
6.518592385e-11
-1.053451445e-08
-4.102564623e-08
-7.351357107e-08
-9.278816614e-09
4.229835376e-10
-1.457911188e-08
-9.495801554e-08
-1.215869482e-07
1.560833584e-09
-4.446077097e-10
4.908615325e-08
-9.221287881e-08
-9.953232545e-08
-3.474584528e-08
8.664518188e-09
1.010452853e-06
-1.564307077e-06
-2.42307339e-07
-7.905294421e-09
4.627682972e-09
6.643008585e-06
3.880633339e-07
-1.58822892e-06
-3.946204851e-07
2.753894894e-09
4.305041209e-07
6.273670709e-07
5.09829619e-06
7.550374601e-05
0.002789355294
-5.605825213e-08
-2.269851055e-06
-4.3476928e-06
0.0002672617887
0.001751963123
3.402259766e-06
2.688808612e-05
0.0001348382479
0.0009865422419
0.001687378329
2.054228762e-06
2.062644809e-05
0.0002625079468
0.001078950356
0.003460484838
-1.345850351e-05
-7.469284928e-05
-0.0002542986066
0.0005260121852
0.00173613671
-9.731078511e-06
-0.0001003748617
-0.0001367025629
0.0008143707701
0.0009622141189
3.769897048e-05
0.0002366558324
0.0005228241905
0.000966533482
0.0006006976072
0.0001062504333
0.0004569538576
0.00131796301
0.0006416309314
0.00048489256
7.323046253e-05
0.0004400003617
0.0007954081425
0.0008686636211
0.0007527426406
-0.000218763909
-0.0004650683576
-0.0005896074901
-0.0003344496365
-0.0004432854708
-0.0008282097477
-0.0014634349
-0.001231135109
-0.00121929328
-0.001443675743
-0.003483794238
-0.002790282444
-0.002302420589
-0.001462473579
-0.0007420100871
-0.001691831957
-0.001593567412
-0.001431748672
-0.001043497522
-0.0005701502074
-1.512118648e-05
-0.000544520194
-3.723276447e-05
0.0002779872296
-5.852699544e-05
0.0001000041423
0.0003557557134
4.55649763e-06
-0.0001529353432
-0.0004913834301
0.001360413056
0.0006849658479
-9.523630548e-05
-0.0007246087693
-0.001665927863
-0.0004105723856
-0.0005933005235
-0.0009125403499
-0.00139169072
0.000115459712
-0.001467460883
-0.001589670721
-0.001756424784
-0.003595314309
-0.005160502157
-0.00363012152
-0.005387440082
-0.006964083138
-0.01198986867
-0.01803517425
-0.004821312225
-0.005785477864
-0.006551491956
-0.008236306422
-0.01165294993
-0.003558480405
-0.002408826575
-0.0001240736124
0.002552208647
0.00478727271
0.007100577664
0.009070876678
0.01236275732
0.01664478051
0.02057924082
0.01896251311
0.01979710978
0.02201264113
0.02473924952
0.02742233776
0.02536018417
0.02569591018
0.02669899675
0.02785849237
0.02938814438
0.02783486009
0.02783348304
0.02815469226
0.02849409839
0.02833810273
0.02730167671
0.02731970837
0.02727562747
0.02734532738
0.02719255506
0.02586852486
0.02577955883
0.02575938431
0.02570269838
0.02531611461
0.02377267735
0.02391094777
0.02373228497
0.02360478325
0.02341308765
0.0216899895
0.02174757997
0.02157685238
0.02142390552
0.02123058164
0.01963295701
0.01954173759
0.01943991023
0.01927716648
0.01899776968
0.01745817503
0.01745011593
0.01731400305
0.01716657059
0.01689365439
0.01537582128
0.01532763624
0.01523594498
0.01506508928
0.01491315217
0.01322894458
0.01322189838
0.01313100633
0.01298142719
0.01283681177
0.01109125061
0.01106472344
0.01098112295
0.01087293787
0.01074568716
0.008922746609
0.008899180136
0.008841472044
0.008753101383
0.008632381279
0.006846940358
0.00683350512
0.00679235125
0.006719293194
0.006640003523
0.005000877428
0.004986697184
0.004958292126
0.004911083754
0.004850113002
0.003468826887
0.003459462961
0.00344158651
0.003409474744
0.003372011783
0.002288099004
0.002286651357
0.002274284901
0.002254338894
0.00222844212
0.00144614848
0.001442269269
0.001435249614
0.001425383185
0.001409289463
0.0008761554331
0.0008744411022
0.000870896582
0.0008649546576
0.0008567412704
0.0005141715084
0.0005136548878
0.0005118383433
0.0005084857558
0.0005046877188
0.0002963611747
0.0002956956336
0.0002948630427
0.0002932669037
0.0002914815142
0.0001700138826
0.0001698134427
0.0001693856765
0.0001685664288
0.0001678379314
9.933005836e-05
9.911328672e-05
9.89233703e-05
9.857531875e-05
9.809375445e-05
6.004458018e-05
6.003169983e-05
5.991955848e-05
5.972116401e-05
5.939278373e-05
3.82426384e-05
3.817297737e-05
3.811882128e-05
3.802152042e-05
3.787219829e-05
2.566174795e-05
2.560762458e-05
2.556968481e-05
2.552386313e-05
2.550841341e-05
1.806266932e-05
1.800884339e-05
1.799875698e-05
1.795684417e-05
1.802300711e-05
1.317103255e-05
1.314844386e-05
1.31331845e-05
1.313254943e-05
1.311318173e-05
9.80548402e-06
9.823641983e-06
9.805480861e-06
9.788885518e-06
9.779100688e-06
7.454284441e-06
7.47169801e-06
7.477428994e-06
7.456699991e-06
7.368534175e-06
5.765843789e-06
5.70017512e-06
5.688774642e-06
5.729417001e-06
5.646006908e-06
4.326861719e-06
4.345388279e-06
4.339574252e-06
4.331473637e-06
4.385090017e-06
3.263347669e-06
3.20660373e-06
3.242970252e-06
3.219140847e-06
3.232645824e-06
2.308677415e-06
2.267171527e-06
2.281672374e-06
2.287798891e-06
2.292942175e-06
1.410049777e-06
1.430513327e-06
1.430032114e-06
1.449308928e-06
1.377531391e-06
6.323322712e-07
6.476815746e-07
6.5308504e-07
6.718244879e-07
6.187399225e-07
-2.62691872e-08
-1.419190654e-08
-1.384352035e-09
1.519941315e-08
-1.903555628e-08
-4.442052617e-07
-4.437289409e-07
-4.289797161e-07
-4.044410653e-07
-4.231570286e-07
-5.517367059e-07
-5.468989128e-07
-5.325014194e-07
-5.060349417e-07
-5.181709279e-07
-2.873872817e-07
-2.761811565e-07
-2.585885967e-07
-2.407081748e-07
-2.542632337e-07
2.642124422e-07
2.713770792e-07
2.836456919e-07
2.968345981e-07
2.502010386e-07
8.922494651e-07
8.870560232e-07
8.914407587e-07
9.083372316e-07
8.688894436e-07
1.392993445e-06
1.403401706e-06
1.395686e-06
1.40576755e-06
1.399134972e-06
1.662867221e-06
1.655453055e-06
1.658432413e-06
1.660035183e-06
1.655649767e-06
1.740437142e-06
1.741525715e-06
1.740216989e-06
1.734451149e-06
1.719057308e-06
1.375482547e-06
1.372347179e-06
1.376596166e-06
1.377505388e-06
1.381102609e-06
1.063220644e-06
1.06318007e-06
1.066827828e-06
1.067011593e-06
1.078628012e-06
8.377215078e-07
8.364606343e-07
8.395919363e-07
8.441801135e-07
8.575556237e-07
0.008477598783
-0.004761650977
-0.005284346092
-0.003604846585
0.002531171252
-6.839882631e-05
4.24515147e-05
0.000738926128
0.000752573754
-2.702698565e-05
-0.001039886768
-8.069078709e-05
-0.002065574576
-0.001268698156
-0.0009119056835
0.0007872197564
-0.003317851442
-0.003661672119
-0.01984460189
-0.01464291972
0.004532377375
0.0224661856
0.02946867275
0.02924785685
0.02979189401
0.02733584834
0.02578862584
0.02308692953
0.02087964194
0.01894698797
0.01686506006
0.01455891813
0.01259744157
0.01053535838
0.008547923125
0.006554882454
0.004799787633
0.003331299947
0.002218031451
0.001401951944
0.0008513433187
0.0005006067883
0.0002887212053
0.0001659580023
9.755224309e-05
5.959893348e-05
3.788332442e-05
2.517849326e-05
1.753150296e-05
1.297379109e-05
9.77087629e-06
7.742788612e-06
5.860196094e-06
4.143936035e-06
3.233193113e-06
2.265065148e-06
1.689071466e-06
9.010144769e-07
2.347151622e-07
-2.353114955e-07
-3.557643892e-07
-1.005067398e-07
5.066815483e-07
1.052735382e-06
1.430072109e-06
1.674260911e-06
1.730236906e-06
1.390422035e-06
1.084208481e-06
8.588816588e-07
-0.005486102035
0.0006693315061
-5.794688918e-06
9.680674032e-08
9.546762143e-09
0.002664065706
0.002311988751
-0.0002752174349
8.476869915e-06
6.870024908e-08
0.0007486112708
0.002440552774
0.003074467117
0.0003447295412
3.060423582e-06
0.001836661235
-0.09852335829
-7.834439003e-05
3.55798164e-05
-2.006591983e-07
0.003488836241
-0.02474913706
-0.00966770003
-0.001619343541
-3.369075753e-05
-0.001026428661
-0.01346638547
0.003179487178
0.0004324260938
2.013923442e-05
-0.000628274217
0.001544407429
0.02252323148
0.001532552601
-0.00022568312
9.26961017e-05
-0.006967070338
-0.1118393216
-0.003274816172
0.0001391516911
7.149754807e-05
0.0009321603627
-0.005937981303
-0.004486095436
-0.0001643183986
0.0001912220385
0.001525622631
0.0602869483
0.005786883822
0.001188067656
0.0005668801384
0.0001830443011
0.05208673973
0.02628134948
0.0007952741022
-0.0003771608818
-0.000577383648
0.002487816425
0.02175640435
0.002173563781
-0.0008351321033
0.02685827397
0.000844698705
0.0008202869047
0.000419654205
-0.001987922572
-0.009202132809
-0.001616954637
-0.002406724811
-0.0005505355415
-0.00116628508
-0.009923264959
-0.002012227981
-0.002983162674
-0.004137476381
-0.001845917028
-0.009636633885
-0.002390740997
-0.003980399041
-0.007175186896
-0.002955226125
-0.006344371896
-0.004621602333
-0.0002344037351
-0.0008250030912
-0.008051016624
-0.009214155451
-0.002632485641
0.02164375289
0.02644483353
-0.02391261011
-0.02725000911
-0.009607948013
0.03599607119
0.04213267675
-0.02015538703
-0.03088206148
-0.08599002336
-0.3125939285
-0.1091693006
0.003761043174
0.004180578847
0.005416694099
-0.01631082406
-0.04417909459
0.02368131675
0.02465211083
0.02567925501
0.02317559773
0.01362192093
0.03082322298
0.03190732611
0.03031511558
0.02591223094
0.01912686638
0.03080295111
0.03082841405
0.02952486615
0.02670471242
0.02294059569
0.02887782912
0.02866146471
0.0275660452
0.02579264928
0.02353167389
0.02708331253
0.02661411228
0.02567849615
0.02436254701
0.02272553435
0.0251319114
0.02465980483
0.02379450081
0.02267422776
0.0212943666
0.0230448149
0.02249872712
0.0217129791
0.02068016605
0.01946277057
0.02082842399
0.02029118034
0.01953516831
0.01859712591
0.01749265325
0.0186401189
0.01812908298
0.01742072493
0.01655906858
0.01557247193
0.01654619459
0.0160654513
0.01541822424
0.01464206226
0.01377219753
0.01453920611
0.01408564187
0.01350982008
0.01283141803
0.01207200052
0.01252131159
0.01213638147
0.01164028103
0.01105837709
0.01040660694
0.01049165891
0.01017067308
0.009762283397
0.009271246331
0.008728495227
0.00845248073
0.008210394044
0.007881374016
0.007488736375
0.007047525007
0.006510297829
0.006331137717
0.006084080372
0.00578154215
0.005441408882
0.004769321751
0.004648645787
0.004471358346
0.004253129293
0.004002799194
0.003323831851
0.003246576478
0.003128122263
0.002977885162
0.002804932499
0.002205253182
0.002160377832
0.00208568498
0.001988004223
0.001874682734
0.001399085287
0.001374274172
0.001329451546
0.001269567605
0.001198836419
0.0008528280802
0.0008400344074
0.0008144219008
0.0007795361959
0.0007375182996
0.0005035848699
0.0004972963359
0.00048343018
0.0004638703958
0.0004400476482
0.0002914713129
0.0002885187796
0.0002812953812
0.0002706821904
0.0002576830081
0.0001680731764
0.0001667134636
0.0001629995639
0.0001574198062
0.0001504525836
9.840268106e-05
9.781009653e-05
9.590643435e-05
9.29789523e-05
8.928883445e-05
5.965574442e-05
5.939033373e-05
5.840918323e-05
5.683470652e-05
5.48773649e-05
3.799937562e-05
3.784171775e-05
3.732024459e-05
3.644545777e-05
3.537244768e-05
2.55286462e-05
2.541470267e-05
2.511523584e-05
2.461320433e-05
2.399915394e-05
1.798759218e-05
1.789832157e-05
1.771515807e-05
1.742384353e-05
1.703961605e-05
1.312257328e-05
1.308071628e-05
1.295600344e-05
1.278454537e-05
1.253563026e-05
9.794639185e-06
9.769307551e-06
9.697652558e-06
9.57662325e-06
9.419877164e-06
7.435443821e-06
7.449095081e-06
7.400811174e-06
7.318454231e-06
7.214499673e-06
5.69835282e-06
5.705732506e-06
5.677889431e-06
5.618566593e-06
5.552403128e-06
4.364059041e-06
4.34923197e-06
4.330075815e-06
4.297725241e-06
4.248654293e-06
3.24510553e-06
3.251296862e-06
3.245746949e-06
3.225454481e-06
3.199661106e-06
2.313110934e-06
2.32313542e-06
2.329639759e-06
2.324105584e-06
2.316942454e-06
1.455113632e-06
1.502592723e-06
1.518586264e-06
1.533819406e-06
1.545086417e-06
7.021562773e-07
7.609830877e-07
7.955095146e-07
8.312117462e-07
8.651479605e-07
7.0553926e-08
1.41065488e-07
1.947904219e-07
2.554413128e-07
3.1375245e-07
-3.346071952e-07
-2.610547705e-07
-1.994221953e-07
-1.274106633e-07
-5.164084998e-08
-4.373469478e-07
-3.635791157e-07
-2.933327638e-07
-2.147091377e-07
-1.288909928e-07
-1.87022976e-07
-1.206891886e-07
-6.219770364e-08
1.131253259e-08
9.161462992e-08
2.992001808e-07
3.73256851e-07
4.080463411e-07
4.604070416e-07
5.228798641e-07
9.081089863e-07
9.37748769e-07
9.632986855e-07
9.967034703e-07
1.036109308e-06
1.405720179e-06
1.413039869e-06
1.424140497e-06
1.438993147e-06
1.455848337e-06
1.654718237e-06
1.653852861e-06
1.662222287e-06
1.774510909e-06
1.771780721e-06
1.72837873e-06
1.730742382e-06
1.629817699e-06
1.632422987e-06
1.626643083e-06
1.392587514e-06
1.391694713e-06
1.397169807e-06
1.399803551e-06
1.401466951e-06
1.081454483e-06
1.092645008e-06
1.109825455e-06
1.124872176e-06
1.139434734e-06
8.594338907e-07
8.335522686e-07
8.933208526e-07
8.976345863e-07
9.28188431e-07
-3.169419142e-08
-4.56086286e-07
-6.336270821e-08
-1.019272226e-08
-3.01331391e-09
-1.717863253e-09
-1.503258899e-09
-1.510945655e-09
-1.549151591e-09
-1.571029787e-09
-1.582139417e-09
-1.584707685e-09
-1.583031948e-09
-1.581885236e-09
-1.580167298e-09
-1.578561751e-09
-1.577825635e-09
-1.577382914e-09
-1.577493826e-09
-1.57749164e-09
-1.577312373e-09
-1.57714287e-09
-1.576995057e-09
-1.576932114e-09
-1.577012715e-09
-1.577129454e-09
-1.577267076e-09
-1.577432603e-09
-1.577634916e-09
-1.577868091e-09
-1.578117797e-09
-1.578359157e-09
-1.578591553e-09
-1.578853914e-09
-1.579151277e-09
-1.579462893e-09
-1.579771019e-09
-1.580093693e-09
-1.580452804e-09
-1.580836504e-09
-1.58122401e-09
-1.581620313e-09
-1.582037424e-09
-1.582463486e-09
-1.582929475e-09
-1.583391772e-09
-1.583843699e-09
-1.584315335e-09
-1.584788075e-09
-1.585255682e-09
-1.585692618e-09
-1.586116302e-09
-1.586510436e-09
-1.586907602e-09
-1.587468823e-09
-1.589113663e-09
-1.595153729e-09
-1.612638116e-09
-1.649151878e-09
-1.701725599e-09
-3.227531341e-07
-2.696604363e-06
-1.143746382e-07
-6.903137958e-09
-1.533394466e-09
-1.339865872e-09
-1.538268201e-09
-1.700201972e-09
-1.83001749e-09
-1.922451909e-09
-1.973940928e-09
-1.999329989e-09
-2.011179898e-09
-2.014694332e-09
-2.013995995e-09
-2.01235236e-09
-2.014089231e-09
-2.019115604e-09
-2.023698573e-09
-2.02625328e-09
-2.026995114e-09
-2.027364581e-09
-2.02770896e-09
-2.027868186e-09
-2.028031305e-09
-2.028402523e-09
-2.028782373e-09
-2.029472773e-09
-2.030242943e-09
-2.030889821e-09
-2.031690672e-09
-2.032457837e-09
-2.033230478e-09
-2.034411826e-09
-2.035678014e-09
-2.036733339e-09
-2.037816584e-09
-2.038997432e-09
-2.04034161e-09
-2.041564894e-09
-2.04289377e-09
-2.044304567e-09
-2.045656682e-09
-2.047102257e-09
-2.048784483e-09
-2.050319949e-09
-2.051890225e-09
-2.053273189e-09
-2.054605863e-09
-2.056094774e-09
-2.057089589e-09
-2.058486943e-09
-2.059575268e-09
-2.060757787e-09
-2.062246902e-09
-2.066815791e-09
-2.081941129e-09
-2.132052626e-09
-2.258305036e-09
-2.40096788e-09
-1.023816641e-06
-4.477543083e-06
-4.015910066e-07
-3.16334192e-08
-4.260843557e-09
-3.791712925e-10
4.154755313e-10
5.19458813e-10
2.853075359e-10
-8.43180242e-12
-2.324615309e-10
-3.805871876e-10
-4.557403632e-10
-4.922980964e-10
-5.056686637e-10
-5.07586444e-10
-5.155592526e-10
-5.325286152e-10
-5.455400281e-10
-5.538788391e-10
-5.591649934e-10
-5.629140882e-10
-5.661806764e-10
-5.694308178e-10
-5.728047704e-10
-5.762440064e-10
-5.795603407e-10
-5.828155078e-10
-5.859897842e-10
-5.889624938e-10
-5.918105101e-10
-5.946460396e-10
-5.973851646e-10
-6.001737577e-10
-6.028346858e-10
-6.054394289e-10
-6.081697651e-10
-6.106392324e-10
-6.131916673e-10
-6.157050715e-10
-6.181766899e-10
-6.206879636e-10
-6.232062803e-10
-6.256292544e-10
-6.281933657e-10
-6.306023245e-10
-6.330071151e-10
-6.352452227e-10
-6.374087436e-10
-6.395411471e-10
-6.414849152e-10
-6.433553665e-10
-6.449137327e-10
-6.465896899e-10
-6.485823972e-10
-6.530487413e-10
-6.655324108e-10
-6.991707602e-10
-7.569406567e-10
-7.897338223e-10
-2.142722107e-06
-1.95284621e-05
-6.049799145e-06
-4.355382168e-07
-5.576484159e-08
-9.854268255e-09
2.019285648e-09
5.233898173e-09
5.275837301e-09
4.34506472e-09
3.367150969e-09
2.676608136e-09
2.281680014e-09
2.088475861e-09
2.006541133e-09
1.974924025e-09
1.951582029e-09
1.922317676e-09
1.900949908e-09
1.886381086e-09
1.876012645e-09
1.86769655e-09
1.860045484e-09
1.852590335e-09
1.845516645e-09
1.83896738e-09
1.832849278e-09
1.827168671e-09
1.821893584e-09
1.816970082e-09
1.81241852e-09
1.808189473e-09
1.804279514e-09
1.800605917e-09
1.797186578e-09
1.794011895e-09
1.790958524e-09
1.788093359e-09
1.785259641e-09
1.782524495e-09
1.779886856e-09
1.777345643e-09
1.774864109e-09
1.772503708e-09
1.770127842e-09
1.767860335e-09
1.76563208e-09
1.76352312e-09
1.761441542e-09
1.759544772e-09
1.7577389e-09
1.756143114e-09
1.754707662e-09
1.753444312e-09
1.752112608e-09
1.750901776e-09
1.750487137e-09
1.759671658e-09
1.810355001e-09
1.890554853e-09
-1.560045866e-06
-3.104709057e-05
-4.769320653e-05
-6.103122983e-06
-5.087345799e-07
-7.146193564e-08
1.062292482e-09
1.707795975e-08
1.760570243e-08
1.383468804e-08
9.879384358e-09
7.04119679e-09
5.409643505e-09
4.605534014e-09
4.265588353e-09
4.141051522e-09
4.088445804e-09
4.052870153e-09
4.031319136e-09
4.017935759e-09
4.008684932e-09
4.000788763e-09
3.993209681e-09
3.985812639e-09
3.978840179e-09
3.97246678e-09
3.966602702e-09
3.961280351e-09
3.956463257e-09
3.952089672e-09
3.948189375e-09
3.944688065e-09
3.94157863e-09
3.93884778e-09
3.936443422e-09
3.934315146e-09
3.932405302e-09
3.930655597e-09
3.928968055e-09
3.927383474e-09
3.925859763e-09
3.924414076e-09
3.922993623e-09
3.921636576e-09
3.920287719e-09
3.918980611e-09
3.917610686e-09
3.916284024e-09
3.914904509e-09
3.913660205e-09
3.912460087e-09
3.911437237e-09
3.910440802e-09
3.909800011e-09
3.90950454e-09
3.911349578e-09
3.919981147e-09
3.953298895e-09
4.044012831e-09
4.147015887e-09
1.388077365e-06
-2.656659403e-05
-9.529851906e-05
-4.665331554e-05
-3.32667845e-06
-1.651310805e-07
4.515842407e-08
6.396420594e-08
5.364602364e-08
3.73809208e-08
2.353302325e-08
1.439919323e-08
9.336323899e-09
6.913391236e-09
5.906217933e-09
5.545815319e-09
5.422033408e-09
5.374022356e-09
5.354168074e-09
5.344590498e-09
5.339074863e-09
5.334444791e-09
5.329620369e-09
5.324714775e-09
5.320032618e-09
5.315667352e-09
5.311731588e-09
5.308321016e-09
5.305327595e-09
5.302741746e-09
5.300618594e-09
5.298845073e-09
5.297435735e-09
5.296343406e-09
5.295551234e-09
5.294998085e-09
5.294650932e-09
5.294462978e-09
5.294322194e-09
5.294255383e-09
5.294240148e-09
5.294192974e-09
5.294107216e-09
5.293998018e-09
5.293802864e-09
5.293541491e-09
5.293169136e-09
5.292713047e-09
5.292086195e-09
5.291509458e-09
5.290826293e-09
5.290231246e-09
5.289582494e-09
5.289215083e-09
5.289399251e-09
5.292058049e-09
5.3020803e-09
5.333476236e-09
5.404983247e-09
5.476365417e-09
-7.931035686e-06
-1.314769937e-05
-9.295323543e-05
-0.0001451842369
-2.971832889e-05
-8.43142865e-07
1.408099975e-07
1.635678262e-07
1.274389161e-07
8.456081888e-08
5.018450477e-08
2.786603279e-08
1.557662957e-08
9.725119992e-09
7.289622305e-09
6.405447055e-09
6.1169467e-09
6.026473794e-09
5.999977645e-09
5.992835661e-09
5.990673595e-09
5.989560844e-09
5.987544962e-09
5.985191862e-09
5.982719647e-09
5.9803597e-09
5.978304191e-09
5.976583514e-09
5.975109783e-09
5.97407992e-09
5.973370898e-09
5.972966191e-09
5.972892412e-09
5.973116763e-09
5.973493407e-09
5.974232835e-09
5.975036524e-09
5.975999048e-09
5.977034704e-09
5.978102382e-09
5.979191067e-09
5.980230921e-09
5.981131025e-09
5.982010716e-09
5.982662017e-09
5.983120989e-09
5.983454975e-09
5.983578791e-09
5.983541177e-09
5.983329419e-09
5.982969914e-09
5.982527335e-09
5.981942012e-09
5.981656336e-09
5.98136942e-09
5.983587702e-09
5.990258859e-09
6.009866692e-09
6.049039027e-09
6.085373997e-09
1.678399056e-05
-5.419241646e-06
-7.086600309e-05
-0.0001818957552
-0.0001436794838
-5.933513468e-06
9.436284733e-07
4.758466955e-07
2.995357515e-07
1.870734586e-07
1.063061621e-07
5.528481753e-08
2.752052756e-08
1.444922382e-08
9.073890001e-09
7.125902109e-09
6.497358989e-09
6.314701082e-09
6.26519978e-09
6.253874953e-09
6.254337635e-09
6.254420686e-09
6.255154193e-09
6.254374665e-09
6.253308811e-09
6.251833049e-09
6.250845344e-09
6.250058771e-09
6.249393062e-09
6.248946661e-09
6.248923117e-09
6.249141973e-09
6.249696176e-09
6.250486812e-09
6.251690569e-09
6.252834999e-09
6.254431285e-09
6.255871849e-09
6.257706158e-09
6.259353509e-09
6.261245178e-09
6.262764444e-09
6.264482348e-09
6.266050761e-09
6.267197813e-09
6.268218377e-09
6.268976111e-09
6.269474511e-09
6.269629478e-09
6.2698496e-09
6.269722364e-09
6.269120823e-09
6.268564784e-09
6.268042591e-09
6.267820096e-09
6.268655407e-09
6.272104779e-09
6.281509826e-09
6.298841075e-09
6.314197549e-09
3.865690901e-05
-2.4559043e-06
-5.61108633e-05
-0.0001929160967
-0.0003048286916
-6.01592709e-05
6.533201432e-06
1.80950669e-06
7.748858634e-07
4.249392254e-07
2.272522412e-07
1.112896447e-07
5.078760948e-08
2.312677223e-08
1.202552446e-08
8.081117019e-09
6.821061813e-09
6.460975891e-09
6.369036576e-09
6.347542655e-09
6.344337387e-09
6.346578991e-09
6.348506971e-09
6.347804133e-09
6.348034655e-09
6.346975372e-09
6.346155383e-09
6.345515258e-09
6.344874599e-09
6.344642487e-09
6.344852065e-09
6.34485638e-09
6.345346171e-09
6.346157219e-09
6.347710475e-09
6.348957156e-09
6.35039832e-09
6.352746495e-09
6.354490456e-09
6.356731593e-09
6.359006958e-09
6.361307363e-09
6.362284316e-09
6.365591449e-09
6.366994123e-09
6.368144711e-09
6.369164465e-09
6.369952229e-09
6.370403953e-09
6.370597925e-09
6.370464046e-09
6.370111511e-09
6.369583709e-09
6.369006925e-09
6.368570189e-09
6.368692487e-09
6.370083925e-09
6.373995874e-09
6.380979076e-09
6.387106018e-09
6.404812734e-05
6.202583078e-07
-3.038752821e-05
-0.0002034444846
-0.0004193671364
-0.000275604516
3.308441057e-05
7.486000054e-06
2.034746815e-06
9.414248887e-07
4.689506415e-07
2.175233687e-07
9.304369493e-08
3.826785932e-08
1.695710625e-08
9.57416484e-09
7.253585193e-09
6.592347184e-09
6.420179358e-09
6.382079512e-09
6.374771691e-09
6.375281389e-09
6.377118131e-09
6.377723991e-09
6.377307179e-09
6.376591848e-09
6.375855803e-09
6.375019851e-09
6.374158532e-09
6.37353557e-09
6.37324023e-09
6.373235122e-09
6.373526667e-09
6.374181515e-09
6.37527013e-09
6.376659977e-09
6.378313537e-09
6.380311016e-09
6.382495843e-09
6.384809393e-09
6.38743285e-09
6.389691722e-09
6.392084358e-09
6.394381075e-09
6.396333853e-09
6.397952629e-09
6.399272226e-09
6.400299835e-09
6.400997774e-09
6.401350133e-09
6.401370351e-09
6.401107678e-09
6.400627652e-09
6.400044892e-09
6.39951413e-09
6.399295432e-09
6.399754739e-09
6.401436425e-09
6.404516524e-09
6.407196926e-09
0.0001503911417
-0.0009483111281
-2.123460973e-05
-0.0002043908622
-0.0005153143028
-0.0006822992628
6.574144472e-05
2.972669567e-05
5.476664296e-06
2.125894967e-06
9.551329666e-07
4.111234309e-07
1.638923317e-07
6.203726497e-08
2.437873798e-08
1.177732249e-08
7.877505092e-09
6.77043913e-09
6.473081572e-09
6.402353933e-09
6.387451101e-09
6.38541855e-09
6.386680608e-09
6.387580979e-09
6.387315266e-09
6.386402726e-09
6.385245858e-09
6.38401407e-09
6.382789061e-09
6.381720373e-09
6.38099255e-09
6.3806273e-09
6.380571222e-09
6.380886313e-09
6.381642651e-09
6.382838731e-09
6.384427045e-09
6.386355271e-09
6.388584178e-09
6.391037626e-09
6.393627282e-09
6.396232813e-09
6.398790555e-09
6.401204125e-09
6.403403319e-09
6.405301789e-09
6.406873364e-09
6.408124961e-09
6.409017405e-09
6.409533601e-09
6.409693731e-09
6.409526691e-09
6.409113866e-09
6.408562879e-09
6.408019202e-09
6.407685097e-09
6.407819422e-09
6.408747735e-09
6.41051603e-09
6.411937473e-09
0.002945910732
0.0004798531268
1.422055908e-05
-0.0002003125784
-0.0006733320995
-0.001180054618
-0.0001505329764
0.0001361512384
2.297173727e-05
5.907384013e-06
2.092423296e-06
7.851035711e-07
2.832450962e-07
9.829268638e-08
3.502519412e-08
1.484310782e-08
8.745271737e-09
7.026012401e-09
6.549215865e-09
6.424418765e-09
6.39537797e-09
6.391686973e-09
6.393266426e-09
6.393556054e-09
6.39268747e-09
6.391417834e-09
6.389804535e-09
6.388107695e-09
6.386501193e-09
6.385024978e-09
6.383790849e-09
6.382924629e-09
6.382451142e-09
6.382388991e-09
6.382791783e-09
6.383686558e-09
6.38505188e-09
6.386829901e-09
6.388960389e-09
6.39137082e-09
6.393973041e-09
6.396666311e-09
6.399336241e-09
6.401894302e-09
6.404274315e-09
6.406386785e-09
6.408160587e-09
6.409591279e-09
6.410648227e-09
6.411306684e-09
6.411586222e-09
6.411515511e-09
6.41117026e-09
6.410665348e-09
6.410148059e-09
6.409801919e-09
6.409855422e-09
6.410560237e-09
6.411855701e-09
6.412732879e-09
0.0003715998403
5.524387121e-05
-7.181982807e-06
-0.0001478251094
-0.0008956768601
-0.001802623712
-0.0008301157891
0.0004408554634
6.453529384e-05
1.589890254e-05
4.528267882e-06
1.421338911e-06
4.513044561e-07
1.428056423e-07
4.720000493e-08
1.838203915e-08
9.818784303e-09
7.355094948e-09
6.646219729e-09
6.45697092e-09
6.409003647e-09
6.399478021e-09
6.398797828e-09
6.397687864e-09
6.397116042e-09
6.396142852e-09
6.394122182e-09
6.391811687e-09
6.389690639e-09
6.38777424e-09
6.386070101e-09
6.38469418e-09
6.383742825e-09
6.383253808e-09
6.383256773e-09
6.383781534e-09
6.384833289e-09
6.386363478e-09
6.388306324e-09
6.390587431e-09
6.393120958e-09
6.395809103e-09
6.398531691e-09
6.401179404e-09
6.403674849e-09
6.405932617e-09
6.407860643e-09
6.409432339e-09
6.410621943e-09
6.411399748e-09
6.41177892e-09
6.411792506e-09
6.411514266e-09
6.411061112e-09
6.410585541e-09
6.410267064e-09
6.410320477e-09
6.410951538e-09
6.412009774e-09
6.412574735e-09
-6.881859008e-05
-4.396078609e-06
0.0009406442719
-9.532772896e-05
-0.001254577416
-0.002687736514
-0.002055184895
0.0007756684713
0.0002349964548
4.370856598e-05
9.513821892e-06
2.462858815e-06
6.807103667e-07
1.950631095e-07
6.036726257e-08
2.221496701e-08
1.102523045e-08
7.756403672e-09
6.777818223e-09
6.499062159e-09
6.423549752e-09
6.407090275e-09
6.403973484e-09
6.403177018e-09
6.402188536e-09
6.400442331e-09
6.398259425e-09
6.395845254e-09
6.393317928e-09
6.390881605e-09
6.388701243e-09
6.386848262e-09
6.385401277e-09
6.384452942e-09
6.384039257e-09
6.384167083e-09
6.384852312e-09
6.386075939e-09
6.387774006e-09
6.38986889e-09
6.3922738e-09
6.394889308e-09
6.397599031e-09
6.40027983e-09
6.40283213e-09
6.405176713e-09
6.40721141e-09
6.408881619e-09
6.410170525e-09
6.411040759e-09
6.411500773e-09
6.411585444e-09
6.411369665e-09
6.410971455e-09
6.410544429e-09
6.410265219e-09
6.410336647e-09
6.410931024e-09
6.411812215e-09
6.412074035e-09
-0.0002328406667
-7.972296695e-05
-2.327695779e-05
-0.0001370225874
-0.002160271174
-0.004269257551
-0.003541591439
0.0008373702925
0.0006581374649
0.0001316502355
2.178969728e-05
4.245693697e-06
9.643005537e-07
2.458964459e-07
7.203276838e-08
2.579320348e-08
1.227005798e-08
8.196177288e-09
6.927344186e-09
6.546310611e-09
6.439439828e-09
6.414408787e-09
6.409540963e-09
6.407788041e-09
6.406332885e-09
6.404775442e-09
6.402728777e-09
6.400059782e-09
6.397055653e-09
6.394139177e-09
6.391535088e-09
6.389261558e-09
6.387365731e-09
6.385973974e-09
6.385148962e-09
6.384891025e-09
6.38521033e-09