/*--------------------------------*- C++ -*----------------------------------*\
  =========                 |
  \\      /  F ield         | OpenFOAM: The Open Source CFD Toolbox
   \\    /   O peration     | Website:  https://openfoam.org
    \\  /    A nd           | Version:  10
     \\/     M anipulation  |
\*---------------------------------------------------------------------------*/
FoamFile
{
    format      ascii;
    class       volScalarField;
    location    "0.0250188088";
    object      ddt0(rho);
}
// * * * * * * * * * * * * * * * * * * * * * * * * * * * * * * * * * * * * * //

dimensions      [1 -3 -1 0 0 0 0];

internalField   nonuniform List<scalar> 
5170
(
-1.501313211
0.309276104
-0.008718778068
-0.7739592907
0.1016531973
-0.2207839096
-0.1804330546
-0.2318370925
-0.1745694978
-0.2132372185
-0.1684368488
-0.2127463224
-0.1897760268
-0.1961482094
-0.1958378191
-0.1766284328
-0.2038526949
-0.1863535369
-0.1962054252
-0.1915086463
-0.1844512136
-0.1948140251
-0.1873595837
-0.1920660427
-0.1886268876
-0.174663205
-0.1740193599
-0.1747242036
-0.1737173466
-0.1719394568
-0.1685281653
-0.1836396778
-0.157887358
-0.1874030681
-0.1692989291
-0.1780206805
-0.1586945022
-0.1735651098
-0.1632885834
-0.1652545353
-0.1076647377
-0.1082704831
-0.1381848953
-0.11004412
-0.1066720553
-0.1076550035
-0.1003000743
-0.07948686827
-0.1063136553
-0.09921609826
-0.1251962483
-0.1130524381
-0.08796608512
-0.119326102
-0.12309229
-0.0832965971
-0.08419634631
-0.08288547577
-0.08570297891
-0.08893883943
-0.06371036255
-0.05465270166
-0.08106861281
-0.05720193
-0.06051239885
-0.04865609584
-0.04833319601
-0.06004265935
-0.04961816209
-0.05047144433
-0.04956908475
-0.0484178587
-0.04715545907
-0.05003667734
-0.05446222743
-0.0591042045
-0.04650247034
-0.05304889634
-0.05077478676
-0.05738814096
-0.04613597959
-0.04972203356
-0.04580583104
-0.0482501664
-0.04755949233
-0.04608989838
-0.03696524653
-0.03565016739
-0.04855720947
-0.03423607004
-0.04681556053
-0.04040486645
-0.1359463964
0.05076137177
-0.1001292188
-0.1380323034
-0.01272756698
-0.1196632305
-0.1185143343
-0.03433668839
0.1435239317
0.1117099233
0.1725241042
-0.03197084981
-0.1091299526
-0.02166092393
0.03627076291
0.04197941252
-0.06647023736
0.2075749085
-0.01160209894
0.05174644327
0.000612525847
0.06340861574
0.01387688892
0.03777082006
0.03759678733
0.06082849538
0.02952351424
0.02514020251
-0.03957287636
-0.007838486843
0.00167977985
-0.02620430511
-0.02837517795
0.0122204919
-0.001902093596
-0.0001165428222
-0.006317429127
-0.01931617557
0.009941188031
0.02421409084
0.03995094469
0.007084489307
0.003927953893
0.02051240241
0.005854350019
0.0130555352
0.006341146359
0.02116579785
0.03036995969
-0.007658711114
-0.007063647084
0.02835065175
0.01993820758
0.009811187909
0.01244866192
0.01617983071
0.03271102903
0.03007557715
0.04083903138
0.04168088638
0.04627628527
0.04476638374
0.01774644109
0.02689746852
0.08465101927
0.04083810991
0.03434195231
0.02359984602
0.02783942489
0.03892921366
0.03117693741
0.02699549155
0.009121698163
0.001717876547
0.1268810766
-0.02843423097
-0.04834155164
0.03961501709
0.2146863608
-0.2062526183
0.213206304
-0.05694240405
-0.01768810041
0.3497246273
-0.2941711133
0.1093249647
0.1093909304
-0.1163695103
0.1865861654
-0.2272670016
-0.04915332896
0.2191591213
-0.09596335321
-0.01604056326
-0.04161314756
0.08168871782
0.09646742532
-0.06733045082
0.1514197358
0.1658694564
-0.1021001474
-0.3804363596
0.271637169
-1.162913483
1.317883356
0.5449887483
-1.413819739
0.5699141035
2.995782312
-0.7137922539
0.5535462996
0.5728534968
-4.504970777
-2.248046006
3.178573308
-1.395205678
-1.818679499
3.474190891
1.28819536
0.02605448805
0.1701807913
-1.603926671
1.590914895
3.351184374
-1.743861502
0.3203243794
-2.833781103
-0.7170023334
-0.2960582376
-0.4961978292
1.566680875
-0.3398014353
-2.614976081
1.756606833
-0.6604678725
0.3085508642
0.5592192067
-0.3373703592
-1.316782251
1.340760705
-2.930491781
-0.04190972261
0.7248914959
-0.400375039
-0.9698072048
-1.457373794
-1.463220049
-0.2992173572
1.252833246
-0.812399502
-2.297400357
-0.9381013111
-0.7277150729
3.95801231
2.131462133
0.318458174
0.02816362668
-0.6239390183
-0.5185852711
3.647981492
4.263555499
1.792152392
0.1778276336
6.656124876
5.471187908
3.484600539
2.792270418
2.301620384
2.983701433
3.022230494
2.818923499
2.213209743
1.884439091
-1.421919228
0.2747538774
1.495387716
1.697083842
1.002268696
-0.4992467998
0.2802940132
-0.7272586349
-0.6585574617
-0.5110664971
-1.247312111
-1.070703511
-1.097423134
-1.107977876
-1.558784323
1.107660732
0.7598502532
0.3823904219
-0.1261233778
-0.1401887167
0.332192955
0.2177309616
0.1370804733
0.2267731174
0.6522179468
-3.590078741
-3.517137908
-2.829995597
-2.269181342
-1.959651885
-2.43917274
-3.226053682
-3.91544767
-5.776449268
-8.852396826
-3.125708735
-4.766139677
-8.687433403
-14.25119235
-20.50257286
-14.09769473
-16.37721013
-21.28015155
-27.15531715
-33.76318135
-30.4618609
-32.26376313
-35.34209716
-39.66017978
-44.91292445
-44.05761762
-45.17998572
-47.19892567
-50.14530634
-53.35597097
-53.23128632
-53.98862077
-55.02800478
-56.50884476
-59.02941868
-56.52354163
-56.75111654
-57.36580286
-57.98608554
-59.10581691
-55.27844457
-55.56189436
-55.66368556
-55.75674188
-56.50475552
-51.36908152
-50.84356912
-51.07463862
-50.87490272
-50.54940095
-44.8868218
-44.43703952
-44.52295045
-44.15514958
-43.53839634
-37.19371935
-37.33111665
-37.06594332
-36.64638892
-36.36987281
-30.16604187
-29.82978041
-29.79388655
-29.31092784
-29.15883152
-23.30409894
-23.26874783
-23.01568509
-22.875669
-22.00911596
-17.83364847
-17.4254426
-17.32504963
-17.28236133
-16.58115467
-12.87529557
-12.75233799
-12.82001214
-12.60367209
-12.03555791
-9.169079905
-9.111757356
-9.048358122
-8.933039271
-8.842870043
-6.392705728
-6.223009807
-6.130176612
-6.278957208
-5.882004287
-4.105845849
-4.172959989
-4.085709859
-4.080135998
-3.963450116
-2.59467847
-2.685173402
-2.564256398
-2.656066546
-2.362452887
-1.88154945
-1.511384089
-1.560806313
-1.670659315
-1.71457482
-0.8110881636
-1.009351667
-1.042717946
-0.8532052491
-1.066423044
-0.5285173761
-0.6046299995
-0.5685120878
-0.5489463799
-0.5565535543
-0.3982343914
-0.3352621336
-0.3082776821
-0.3851402776
-0.2056646972
-0.09735344353
-0.2607639239
-0.2138311405
-0.2255570962
-0.04000684097
-0.1157671602
-0.1480666778
-0.1368890153
-0.1677699784
0.0433375916
-0.01878732573
-0.1296051757
-0.1113999842
-0.08976057454
-0.05504724784
-0.08615429805
-0.06961474649
-0.0744220786
-0.08167097496
-0.1345492384
-0.02081787333
-0.07311835651
-0.07118551258
-0.06767985151
-0.07368304808
-0.01419368611
-0.06339909502
-0.0705937077
-0.05866028531
0.01459125074
-0.007154018923
-0.06572130368
-0.05560544667
-0.06603851319
0.07434413097
-0.02844941844
-0.05406270215
-0.05944505335
-0.03311777714
-0.01884701975
-0.06068836283
-0.03166485407
-0.04688224895
-0.05217723203
-0.04196407464
-0.06843375737
-0.04014760386
-0.02500191564
-0.04483940781
-0.1634421744
0.04807951546
-0.05946607777
-0.07471107974
0.0001764578639
-0.1265869054
-0.06311157171
-0.03087160608
-0.03969200758
-0.0501780906
0.05126104282
0.02778982967
-0.0787304227
-0.01202744947
-0.05650593989
-0.0301275218
0.02294471824
-0.06077672091
-0.03643592849
-0.02954606507
-0.02537737687
-0.06156576529
-0.02420386721
-0.03429047251
-0.007230929321
-0.1722920471
-0.04939777349
-0.02427884241
-0.02868982289
-0.01156141507
-0.156979001
-0.0403563938
-0.02470841622
-0.01981254814
-0.01761044735
-0.1409050428
-0.01584533104
-0.02881273326
-0.02422146037
-0.01070145632
-0.1114941266
-0.02342655128
-0.02518426801
-0.02290541399
-0.005500653469
-0.09826832235
-0.04187311967
-0.0262894889
-0.009668529408
-0.006746159179
-0.09830863392
-0.03188105089
-0.02199628914
-0.01008024425
-0.006307679957
-0.1607432299
-0.006932285525
-0.02576557568
-0.02435940081
0.005174177326
-0.1301031691
-0.03396214803
-0.004818250476
-0.03151351337
-0.009075289606
-0.04025672806
-0.003723410604
-0.02713164507
-0.01897144052
-0.01581781106
-0.03256271297
-0.02144974545
-0.01902090255
-0.01510581768
-0.02257766721
-0.0361230449
-0.01063051351
-0.02438978034
-0.01543480731
-0.01985010642
-0.01777551141
-0.01951143889
-0.02051957071
-0.01197627741
-0.02334638859
-0.01328770235
-0.01175953837
-0.01944987944
-0.01680233707
-0.01745742817
-0.008642013073
12.73331067
-10.20219447
-6.27474614
-8.283741038
-1.711771002
-1.405532823
1.242067152
0.4675423981
-0.6213765561
-0.5553028375
0.1576768384
2.252670299
-0.122781808
-0.1324736872
-1.250018712
1.198113325
-1.327023134
1.008013671
-3.077769117
-11.20152323
-25.48074032
-38.32955724
-48.08562716
-57.01534528
-58.12173417
-59.25265275
-54.95404874
-50.89036168
-43.94409302
-35.28242371
-27.80113049
-23.51699615
-17.60509331
-13.48929741
-8.640035612
-6.490567434
-4.205765075
-3.256352821
-0.9345085673
-0.6757584165
-0.6576413519
-0.7971739671
-0.8306266717
-0.8015468985
-0.2771454453
0.1577441235
0.004060441353
-0.3104103462
-0.5013091028
-0.1851816428
-0.03895296124
0.4312051777
0.2365719172
-0.375813508
-0.03140803104
-0.08883310109
0.4593457525
0.4279220611
0.391454176
0.2808708612
0.2417345889
0.2438049237
0.5020214795
0.365940159
0.04400191316
0.02626118612
0.05262235952
-0.024662184
-0.0280456551
-0.04839399224
-5.013267092
3.938247189
-1.670675323
2.618024545
0.6407188772
-0.0695817005
1.196398766
-2.93415554
1.927810542
-0.7952675782
-0.315947586
1.443860304
-2.631311895
3.803665251
-3.068639694
-0.790023163
-0.3193009037
0.7518401243
0.4398635273
-0.8243049959
-0.4070130993
-0.5411238345
0.745013985
-0.7225692125
0.7943808256
-0.4836512659
0.6676044933
1.001270089
-1.09670511
-0.5203912086
0.9668278848
0.4813628046
-0.06216318517
-0.3064077068
0.2273557388
0.6095882076
-0.1446649358
0.3637243863
-0.2927559868
-0.1306585922
-0.5847636808
-0.06570716378
-0.5352527573
0.2610621092
0.1209837499
-0.06443185055
0.7864463924
-0.4286580948
0.3577234543
-0.7368581703
0.6257536536
0.3959597339
0.6896722208
1.33720845
-0.3177826027
1.334141373
0.2478328616
1.177979831
0.5681678785
-0.04150695059
0.6267125445
0.3949149078
0.6267926645
-0.2642814182
-0.06757107407
-0.8019963805
-0.7524404832
-0.03136338327
-0.5066590143
-0.4795412637
-0.5876761073
-0.2346656218
-0.2203170531
-0.4763795752
-0.3645238621
-0.6738342632
-0.2219261125
-0.8431275372
-0.8228932925
-0.4650593175
-0.336095952
-0.3179992128
-0.3076016517
-0.1718033162
0.4743219925
0.8407556156
1.519403636
2.266580649
2.746420533
2.105238043
-1.651012233
-0.5343593353
1.424942892
3.407276041
2.844738869
-14.46873763
-23.44231706
-41.86195924
-77.53035073
-94.87470701
-30.74982583
-42.47853918
-60.50529708
-90.44512087
-128.4523582
-44.40782261
-55.4308865
-69.34646299
-88.30212992
-111.028758
-53.84669875
-63.01149642
-73.05629867
-83.68764347
-93.8669154
-59.890784
-66.05876824
-72.0830744
-77.23703866
-80.52749232
-62.35328523
-65.61101291
-68.40999592
-69.93812449
-69.7076702
-60.84846115
-62.12518798
-62.6526072
-62.0183942
-60.03453612
-56.81251439
-56.71871941
-56.03422236
-54.31788396
-51.66847008
-50.47433472
-49.8779245
-48.46918384
-46.3865362
-43.55493269
-43.14413206
-42.21269124
-40.63583191
-38.45220329
-35.83693822
-35.59234914
-34.5287762
-32.99590994
-31.02899045
-28.74405668
-28.36972863
-27.3899508
-26.06324759
-24.44205423
-22.5666956
-21.78198211
-21.16246361
-20.12716715
-18.83862148
-17.41882105
-16.44426985
-15.95952312
-15.20456923
-14.23873173
-13.2162606
-12.01656558
-11.78262561
-11.17915654
-10.56966836
-9.786072966
-8.669444308
-8.399029765
-8.054139599
-7.585467597
-7.082362398
-5.927218874
-5.839235836
-5.569481083
-5.304478608
-4.938203509
-3.959792027
-3.873853338
-3.76252867
-3.532576245
-3.35361768
-2.49078535
-2.502039017
-2.414099331
-2.308255945
-2.164994139
-1.628065802
-1.567356679
-1.487558444
-1.462122111
-1.350648666
-0.9719760381
-0.9426014225
-0.9114986612
-0.8803267139
-0.8387337769
-0.561521656
-0.5473487756
-0.5678570236
-0.51291659
-0.5149415665
-0.3020602328
-0.3338932712
-0.3384817175
-0.3139635278
-0.3132290065
-0.1600525937
-0.215286723
-0.1991692315
-0.2099804388
-0.187802909
-0.08242738898
-0.1417858755
-0.1368122285
-0.1315581237
-0.1311936661
-0.08474048484
-0.09951099653
-0.09656170778
-0.09562999464
-0.09356997189
-0.09422279991
-0.08176820615
-0.06557252458
-0.08509764208
-0.06454298588
-0.06730446644
-0.07338774404
-0.04856305893
-0.07272917218
-0.05364889296
-0.0335866997
-0.06082927395
-0.04605356107
-0.06215922943
-0.04573892289
-0.01209786314
-0.05343639284
-0.04720572868
-0.04847843598
-0.04765493397
-0.03590760916
-0.04243584087
-0.05198410355
-0.03656622549
-0.04950525255
-0.04180569294
-0.04691482929
-0.04111816256
-0.04202943479
-0.04143693089
-0.08165743728
-0.04111918308
-0.03890739766
-0.04213184512
-0.03851921063
-0.06238795022
-0.04163851592
-0.03473312597
-0.04437553787
-0.03354528149
-0.01096642636
-0.03880394262
-0.03938843693
-0.03523202702
-0.03793680942
-0.03735992628
-0.03815940557
-0.03406449221
-0.03762878013
-0.03322850633
-0.02820712569
-0.03671262249
-0.03165266491
-0.03578759083
-0.03144593811
-0.07379110249
-0.02776652715
-0.03336005644
-0.03070199124
-0.03014141514
-0.06752591215
-0.0264294281
-0.03034962359
-0.02760245879
-0.0284326667
-0.06086309268
-0.02461705324
-0.02655848508
-0.02677045505
-0.02448262816
-0.0468543382
-0.02502341564
-0.0232574262
-0.02268159097
-0.0244918289
-0.04475286243
-0.01968692628
-0.02232132882
-0.02197385948
-0.02087686862
-0.0454171614
-0.01384736247
-0.02523116746
-0.0182363635
-0.02022581023
-0.06386897067
-0.01741620702
-0.01906512038
-0.02090171332
-0.01823725533
-0.05151700238
-0.01746148276
-0.01948458288
-0.01955837157
-0.01859313544
-0.02410097311
-0.01904271154
-0.01938394981
-0.01929632041
-0.01884447839
-0.0229849597
-0.01902061621
-0.01949712112
-0.01868729224
-0.01896975471
-0.0246946637
-0.01989564304
-0.01841535178
-0.01921913237
-0.0183954445
-0.01737197454
-0.02007464454
-0.0171645624
-0.01997321383
-0.01762016226
-0.01701259948
-0.01881319346
-0.01764211683
-0.0187030061
-0.01779484663
-0.01473004922
-0.01709601407
-0.01712723816
-0.01725275998
-0.01715337159
1.121759465
0.7176701955
0.06692771506
0.04032200424
0.02344737552
0.01553151416
-0.03127017604
0.00868307061
-0.009213336936
0.01301256235
-0.008380668005
-0.010070144
0.007363092934
-0.003097753966
-0.005770174607
-0.0009983206284
-5.235678449e-05
0.002307057455
0.003339354238
0.005748069589
0.007928022384
0.009673130792
0.01187422291
0.01400663037
0.01623487307
0.01861759544
0.0211776874
0.02394597756
0.02676707709
0.02948939062
0.03211022895
0.03466883124
0.03716886242
0.03948963363
0.04152214658
0.04327376892
0.04468651227
0.04559284721
0.04586466929
0.04555736794
0.04478979765
0.04344217485
0.041484725
0.03884058055
0.03534163156
0.03174431037
0.02795510449
0.02360092769
0.01895697839
0.01421863922
0.009592310096
0.00503647784
0.0006780603193
-0.003376564348
-0.0070054977
-0.01009395585
-0.01262558727
-0.0145230043
-0.01594762069
-0.01636738582
-0.2191446378
-0.5596325989
0.1228463862
-0.05398562902
0.05197006926
-0.04016338673
0.02134012524
-0.00646564751
0.01206277342
-0.005504983233
-0.0005264031653
0.003463687593
-0.001860403076
-0.003981555325
0.0001319507093
-0.001158212199
-0.0004177729826
0.002296193126
0.00259950631
0.004313997845
0.006658508995
0.008381123808
0.01018838457
0.0121810972
0.01437409528
0.01672909419
0.01933407677
0.022026446
0.02477362712
0.02758227007
0.03041990399
0.03321614721
0.03589565991
0.03838187097
0.04061817573
0.0425498055
0.04413481193
0.04531007361
0.04601513906
0.04620993627
0.04582220307
0.04481446589
0.04317499091
0.04094498154
0.03814690881
0.03476666467
0.03089995963
0.02668105864
0.02221999496
0.01763994017
0.01304758084
0.008535097898
0.004204699327
0.0001605263687
-0.003482442113
-0.006569356823
-0.009122671759
-0.01106779521
-0.01234286299
-0.01258229057
-0.1148236924
-1.933316395
-0.4381794587
-0.08032005856
0.05622704989
0.02740645572
-0.03516498705
0.01797635134
0.003850995557
-0.01568575922
0.01319223631
-0.007463638589
0.0007702795204
-0.003715898471
-0.002468084344
-0.002115290581
-0.003166203528
-0.002404452487
-0.001537202669
5.532887367e-05
0.001017232914
0.002064804935
0.003666635119
0.005304176382
0.007162328553
0.009285228823
0.01158843966
0.01409961867
0.01680374169
0.01961432159
0.0224828581
0.02536985405
0.02824018201
0.03103021417
0.03366428199
0.03607137811
0.03816822149
0.03990745139
0.04122400691
0.04203206794
0.0422879715
0.04194671424
0.04098288487
0.03940041399
0.03720694725
0.03441420575
0.03110693373
0.0273604198
0.02329383213
0.01900100553
0.01461106876
0.01026040491
0.006022694031
0.002036826033
-0.001586405582
-0.004701859029
-0.007326678507
-0.009211208605
-0.0100791454
-0.009850334043
2.402943749
-1.750432555
-1.494923991
-0.193270541
0.00421636206
4.106998923e-05
-0.01391595478
0.01568928334
-0.002227690203
0.001878118152
-0.001171806312
-0.0002884083911
-0.001411455403
-0.005022598529
-0.002886681985
-0.007077061195
-0.007312514764
-0.006560179668
-0.007032830964
-0.007340204098
-0.007150561903
-0.006137138832
-0.005482279584
-0.004754885187
-0.003426382244
-0.001833820499
2.88966946e-05
0.00216732824
0.004580492205
0.007249913158
0.01009088916
0.0130930646
0.01620800831
0.01934475638
0.02243599634
0.02542051833
0.02820240135
0.03068792419
0.03282590577
0.03451882386
0.03569274636
0.03630186803
0.0363065123
0.03564807475
0.03433613973
0.03238561669
0.02984028582
0.02676171145
0.02326183252
0.01940640949
0.0153359329
0.01119133572
0.007105815912
0.003180723102
-0.0004227441725
-0.003569746586
-0.006183562951
-0.008146246697
-0.009493662127
-0.009227462896
0.4037801847
-2.621262865
-2.583315089
-0.5910128058
-0.06875992988
-0.01246029456
-0.001239090615
0.003297508286
0.006454677419
0.005176021819
9.412947055e-05
0.004781188462
-0.000432631166
-0.005953202981
-0.006110132339
-0.008275734673
-0.009976808962
-0.01114502767
-0.01295049978
-0.01429047113
-0.0150441837
-0.01548549528
-0.01586515069
-0.01583418859
-0.01543047449
-0.01467944149
-0.01356133893
-0.01199356797
-0.01000219332
-0.007653773087
-0.004932187171
-0.001894494704
0.001358192788
0.004798486443
0.00839548106
0.0119732263
0.01550182374
0.01890297139
0.02200897415
0.02480956832
0.02711856004
0.02890011085
0.03008817636
0.03058609808
0.03041350783
0.02951905829
0.02791889202
0.025722332
0.02291992091
0.0195954811
0.01596006941
0.01208143592
0.008126655
0.004277333192
0.0007242816311
-0.00243902799
-0.005344336578
-0.007358741346
-0.008759100068
-0.00886723618
-1.181761843
-3.008844619
-3.826749181
-1.968541922
-0.4059734932
-0.04876276901
-0.0175970675
0.02410437994
0.007993438282
0.01276056764
0.005706736824
0.003728032243
0.008415568279
0.0002930768397
-0.006354987256
-0.005672134056
-0.01245963664
-0.01319514233
-0.01519799198
-0.01854626607
-0.0210152914
-0.02288584434
-0.02452594626
-0.02562986792
-0.02643888536
-0.02678633368
-0.02670591694
-0.02601989444
-0.02479933414
-0.02300582715
-0.02069480974
-0.01790063458
-0.0145917967
-0.01096066101
-0.006987277484
-0.00282510156
0.001447087922
0.005832375806
0.009964776073
0.01386753051
0.01749259239
0.02054404521
0.0230404449
0.02489147696
0.02597881924
0.02631016214
0.02588213539
0.02465905968
0.02258936297
0.02008155538
0.01688682444
0.01340437924
0.009627148158
0.005705073811
0.002100534752
-0.001133255685
-0.003622195379
-0.006672663598
-0.008072560423
-0.008310137275
-0.7205163308
-1.404159697
-2.003354249
-0.9863694496
-1.737208695
-0.2934711369
-0.06802812881
0.02650588072
0.03825590084
0.005953043204
0.02667079626
0.01119018106
0.009869160705
0.01680830498
0.0004803369275
-0.003038005755
-0.005360623892
-0.01065237206
-0.01557076356
-0.01860885862
-0.02294886389
-0.02564529911
-0.02934019201
-0.03207105565
-0.03444064421
-0.03623104567
-0.0373902457
-0.03792027103
-0.03801650829
-0.03706494273
-0.03548883033
-0.03320959644
-0.03021144567
-0.0264909814
-0.02261350595
-0.01771266035
-0.01292310006
-0.007782977735
-0.002604261169
0.002438609745
0.007319923422
0.01180540297
0.01555415529
0.019008562
0.02144412575
0.02293413386
0.02375651874
0.02352326468
0.02261921041
0.02080387554
0.01831142622
0.01518343892
0.01143734835
0.007978166819
0.002931303659
0.0008411009679
-0.002717510812
-0.005118466476
-0.007037261873
-0.007447052763
0.2073543602
-0.5619080025
0.1070899511
3.310787855
-2.773539808
-2.117550485
-0.1954613873
-0.04106354841
0.06993604933
0.03588766292
0.0169348053
0.04734049972
0.02294249572
0.01911992611
0.02175430353
0.008920582252
0.002534306296
0.0009480504849
-0.007805034118
-0.01628671013
-0.01768501166
-0.02590367537
-0.02826032765
-0.03306286181
-0.03697665699
-0.04155225493
-0.04410695294
-0.04595477519
-0.04746035593
-0.048352538
-0.04779935947
-0.04652217036
-0.04416991896
-0.04105154734
-0.03653964315
-0.032358324
-0.02659585627
-0.02150313065
-0.01500695559
-0.009303772957
-0.002757447384
0.002313750417
0.008073425782
0.01319664539
0.01668364865
0.01963338369
0.02155149947
0.02239895563
0.02192442913
0.02168141253
0.020156231
0.01669157086
0.01332155577
0.009528812373
0.005728019288
0.002113739114
-0.001204060872
-0.003970730126
-0.005974658659
-0.00680215622
0.1810780938
-0.4896330109
-1.333401983
-1.256161603
-4.318933385
-9.179528563
-1.560105372
-0.06249998566
0.0007237789234
0.07959570048
0.05090501954
0.03977404364
0.06568489288
0.03599615388
0.03167637693
0.03409645013
0.018200165
0.008902151098
0.009621505643
-0.0005727731701
-0.01218571168
-0.01646739354
-0.02031187265
-0.03018180998
-0.03363536081
-0.04036686597
-0.04536563423
-0.04918639417
-0.05285150019
-0.05489467337
-0.05520664603
-0.05629898712
-0.05554550119
-0.05357158431
-0.04880953827
-0.04519718316
-0.04086441347
-0.03309456712
-0.02761338983
-0.02025312513
-0.01276601679
-0.005178606567
-0.002590626705
0.008854872635
0.01317117178
0.01653462951
0.01941817935
0.02142458797
0.02217492912
0.02192512253
0.02044420519
0.01806857849
0.01495072194
0.01128728319
0.007409479608
0.003573334388
4.571076286e-05
-0.003046109005
-0.005385014161
-0.00641096291
-0.1974155138
-0.6749739512
-0.3945779269
-1.687790108
-7.424565276
-24.81042214
-8.54044917
-0.563860843
-0.04883169728
0.09780513596
0.1077916468
0.0241018566
0.1049784568
0.08673764169
0.04063913869
0.05766349716
0.05066707832
0.02563925803
0.02126864159
0.02085830236
0.008022120448
-0.002747062661
-0.009904789099
-0.01795818857
-0.02649015499
-0.0340240323
-0.04043050719
-0.0465108685
-0.05226240688
-0.05683169027
-0.05995267574
-0.06183336841
-0.06247344254
-0.06164245402
-0.05909431991
-0.05533362127
-0.05051583449
-0.04433822592
-0.03740175277
-0.02993051285
-0.02124521743
-0.01389510858
-0.005998931683
0.001568727046
0.007868773658
0.01293501353
0.01689786749
0.01977926082
0.02144277439
0.02181517013
0.0209410189
0.01895632666
0.01605462523
0.01248283327
0.00853946702
0.004522838922
0.0007558838831
-0.002553432374
-0.005172827439
-0.006467453615
0.07436273243
-1.874050011
0.02522735072
-1.695400306
-8.094243176
-34.47597402
-26.28712252
-2.37059247
-0.3063958696
0.2751921704
0.0567459195
0.04505196484
0.1492157442
0.1186520224
0.07758875193
0.08523746006
0.07689467267
0.05612778527
0.04724003004
0.04618515537
0.03334947562
0.01751479111
0.0070336061
-0.002066971349
-0.01202771949
-0.0219085447
-0.03113685037
-0.03965871833
-0.04751199185
-0.05433517168
-0.05955421728
-0.06317239766
-0.06544369847
-0.06616911985
-0.0651092313
-0.062286562
-0.05789357514
-0.0521372509
-0.04517385783
-0.03729729011
-0.02884713341
-0.02028257179
-0.01184796932
-0.003912355893
0.003256567669
0.009328876482
0.01420281086
0.01790009172
0.02027070042
0.02123934585
0.0208696094
0.01922800384
0.01654735156
0.01306808638
0.009086051068
0.004921036739
0.0009384572885
-0.002613928448
-0.005494427833
-0.007037729412
1.148064017
-0.5934850256
0.3918327221
-2.269023749
-10.49377832
-40.32889833
-49.30237224
-9.150728028
-0.6496156802
-0.02995294447
0.1524428075
0.1104804933
0.1160277589
0.1652455851
0.1501928415
0.1091115088
0.09053396368
0.09895970355
0.08933045029
0.07221283563
0.05494567883
0.04335784378
0.03471322285
0.02178250274
0.00781048704
-0.004899508963
-0.01701648647
-0.02818625924
-0.03815290767
-0.04702565564
-0.05455554993
-0.06038180858
-0.06448770946
-0.06685416225
-0.06731411961
-0.06578907965
-0.06237869507
-0.05731316443
-0.05083148891
-0.04321552744
-0.03480579773
-0.02598873962
-0.01720227265
-0.008784694036
-0.0009905979907
0.005839054083
0.01143178141
0.01576609861
0.01872071228
0.02019027461
0.02022941957
0.01889817061
0.01639638878
0.01298941084
0.008980552464
0.00469682202
0.0005343014376
-0.0032279667
-0.006348318611
-0.008104362366
0.2442390146
-0.211367009
-0.474896316
-3.272152099
-14.2784107
-43.86861339
-69.05389252
-26.57113992
-2.162679708
-0.05465138402
0.3528521647
0.1810499466
0.1118431865
0.1456071225
0.1559282422
0.1565804925
0.1569783985
0.1205798228
0.1048466036
0.1090378432
0.09387287621
0.07837690953
0.06400105121
0.04485012855
0.0304152114
0.01733726582
0.002445990949
-0.01201453548
-0.02466803333
-0.03576796742
-0.04550656087
-0.05359821566
-0.05978343939
-0.06398840208
-0.0661498744
-0.06618595969
-0.06410222928
-0.06009816406
-0.05443650549
-0.04740916839
-0.03934843683
-0.03063217993
-0.02172024631
-0.01303069007
-0.004861017625
0.002462565061
0.008587332123
0.01340615663
0.01681512552
0.01868859341
0.01905131471
0.01796904083
0.01562109872
0.01227094935
0.008239743146
0.003868403284
-0.0004360680055
-0.004382802351
-0.007700473942
-0.009628388547
-0.04320298101
-0.1146582214
-0.1044724098
-5.504595359
-19.5483396
-54.39966371
-89.6038982
-48.97277092
-6.05115771
-0.3503318159
0.3502470535
0.2436937667
0.1157732058
0.1991919926
0.2462985805
0.2026656134
0.1514310995
0.1469662885
0.1454680238
0.1465302012
0.1264283277
0.1113051746
0.09317778723
0.07502572434
0.057571147
0.04004430807
0.02321530091
0.007284852927
-0.007751820754
-0.0214696347
-0.03350925173
-0.04379530833
-0.05216718311
-0.05836588326
-0.06231859006
-0.06404023128
-0.06350192904
-0.060797496
-0.05618557953
-0.04997352063
-0.04249889061
-0.0341469939
-0.02536420107
-0.01662236485
-0.008303261655
-0.0007123351418
0.005759877628
0.01089842409
0.01463160625
0.01680125399
0.01740859442
0.01651423077
0.01428873476
0.01099039626
0.006947616258
0.002509204527
-0.001915412443
-0.005994584009
-0.009447128808
-0.01152134676
-0.206712694
-0.7888422493
-1.971358059
-8.726518025
-30.06911512
-77.73991263
-114.4761851
-72.10994839
-11.61697386
-1.256788076
0.1885402263
0.2365860276
0.2109028264
0.2212093409
0.2429360785
0.2288227067
0.2114765011
0.183210922
0.1829783452
0.1740875696
0.153067282
0.1399569535
0.1235376343
0.1024987492
0.08212302883
0.06385554832
0.04618799486
0.02813822748
0.01035849203
-0.005915603546
-0.02013453602
-0.03246274114
-0.04289201073
-0.05106134968
-0.05681424035
-0.06020336771
-0.06122899646
-0.05991243039
-0.05645816431
-0.0511828813
-0.04443954149
-0.0366248554
-0.02817374611
-0.01957393092
-0.01127701471
-0.003611337689
0.003032065819
0.008360281901
0.01228932968
0.01464581101
0.01541725115
0.01465418301
0.01251713212
0.009258767466
0.005209228833
0.0007268933099
-0.003758879986
-0.007931055448
-0.01150326891
-0.01364788711
-0.6434612334
-2.655796395
-6.195520119
-17.24752082
-54.46132137
-119.5365553
-143.6507664
-77.67577582
-28.41084848
-2.648438284
-0.06991965831
0.2443631412
0.2955255101
0.2677403141
0.2537865955
0.241097603
0.2420724735
0.2386604601
0.2043569093
0.1965785615
0.1881736393
0.1697126572
0.1469454423
0.1255553964
0.1059296339
0.08644687881
0.0665224201
0.04665636231
0.02747621929
0.00949167513
-0.006821711777
-0.02113863434
-0.03335307898
-0.04328713963
-0.05071960388
-0.05564482104
-0.05809769313
-0.05808355406
-0.05575368099
-0.05142381608
-0.0454561787
-0.03824514381
-0.03023499362
-0.02190966621
-0.01376524221
-0.006169133533
0.0005009421992
0.005897958084
0.009909026133
0.01235711396
0.01321708099
0.01252896544
0.01044591539
0.007218898919
0.003175414835
-0.001329250529
-0.005856112935
-0.01006728597
-0.01369124806
-0.01587643029
-1.856144865
-5.184490519
-14.60363857
-37.92498885
-102.5903139
-175.2253235
-158.8253667
-81.26661544
-26.28273305
-4.947271793
-0.5158064753
0.1159755565
0.2237369847
0.2818669499
0.2789012827
0.2464875883
0.2457392238
0.2374209872
0.2310293913
0.2232325848
0.2088229124
0.1891346825
0.1682751341
0.1475639077
0.1265276304
0.1050146099
0.08344649527
0.06238962175
0.04203822023
0.02258366913
0.004594168345
-0.01135784561
-0.02504120002
-0.03638295382
-0.04518491445
-0.05136604271
-0.05496751617
-0.05601780894
-0.05464061552
-0.05113362408
-0.04586355182
-0.03922868659
-0.03167212394
-0.0236813636
-0.01576631655
-0.00832750018
-0.00174043627
0.003623633641
0.007623229198
0.01007916725
0.01095913474
0.01029407747
0.008232588772
0.005023881767
0.0009933083391
-0.003506207464
-0.008034966286
-0.01225438316
-0.01587967556
-0.01806136924
-3.011110157
-13.24122464
-32.76069682
-97.93080667
-182.678875
-211.6719753
-142.5191738
-64.54822871
-22.13520829
-5.644208569
-0.7106265127
0.1021099066
0.2350631177
0.2587743253
0.247769232
0.236097057
0.2339925768
0.2386189985
0.240170712
0.2345294797
0.2220824424
0.2050658059
0.1853249372
0.1636300796
0.1408326839
0.1178254124
0.09521236503
0.07323525115
0.05191954556
0.03148521136
0.01247675929
-0.004548708338
-0.01925333612
-0.0315236175
-0.04121983212
-0.04822685939
-0.05258269725
-0.05434062339
-0.05361982774
-0.05070164515
-0.04595213973
-0.03977195329
-0.03260357085
-0.02493418235
-0.01727248316
-0.01003663275
-0.003605442065
0.001648387445
0.005561503951
0.007953425099
0.008791858255
0.008101994994
0.006034055466
0.002830243261
-0.001186316669
-0.00566137974
-0.01016024749
-0.0143472495
-0.01793356282
-0.02008313179
-12.74677573
-29.82765796
-75.81760477
-178.2331033
-218.9241904
-173.0849673
-95.41043568
-40.40155802
-14.39338539
-3.99961577
-0.7302205744
0.03209749682
0.1991827339
0.2570730828
0.2618676455
0.251285637
0.2430703903
0.2416107554
0.2416065077
0.2384928989
0.2292298337
0.2134806984
0.1931627427
0.1703742644
0.1467918113
0.123408106
0.1005067158
0.07800386482