/*--------------------------------*- C++ -*----------------------------------*\
  =========                 |
  \\      /  F ield         | OpenFOAM: The Open Source CFD Toolbox
   \\    /   O peration     | Website:  https://openfoam.org
    \\  /    A nd           | Version:  10
     \\/     M anipulation  |
\*---------------------------------------------------------------------------*/
FoamFile
{
    format      ascii;
    class       volScalarField;
    location    "0.0250188088";
    object      ddt0(rho,H2O2);
}
// * * * * * * * * * * * * * * * * * * * * * * * * * * * * * * * * * * * * * //

dimensions      [1 -3 -1 0 0 0 0];

internalField   nonuniform List<scalar> 
5170
(
1.879333571e-07
1.884964012e-07
1.887935778e-07
1.892957079e-07
-9.469968349e-11
1.852900904e-07
1.858989288e-07
1.863970122e-07
1.887242413e-07
1.909022235e-07
1.81591554e-07
1.821611924e-07
1.826897349e-07
1.834212153e-07
1.895079221e-07
1.833212445e-07
1.838899363e-07
1.844195985e-07
1.84522116e-07
1.862094534e-07
1.865026775e-07
1.870981828e-07
1.876014533e-07
1.877361371e-07
1.882464556e-07
1.894839587e-07
1.902774089e-07
1.909242206e-07
1.907585257e-07
1.915756847e-07
1.913692974e-07
1.922399911e-07
1.931656299e-07
1.930013579e-07
1.943548408e-07
1.922464456e-07
1.930998691e-07
1.938947698e-07
1.945406129e-07
1.960608203e-07
1.922375259e-07
1.932073648e-07
1.9408291e-07
1.948109675e-07
1.965887422e-07
1.915025242e-07
1.926073008e-07
1.941319097e-07
1.94148034e-07
1.96047275e-07
1.906892136e-07
1.916550516e-07
1.929305189e-07
1.933513463e-07
1.952020996e-07
1.900297449e-07
1.908416351e-07
1.911402427e-07
1.924959896e-07
1.944315653e-07
1.890453508e-07
1.899869147e-07
1.901288472e-07
1.914386186e-07
1.935903105e-07
1.881876687e-07
1.892277447e-07
1.898366287e-07
1.905358347e-07
1.929991272e-07
1.877007557e-07
1.887171913e-07
1.89696204e-07
1.901064485e-07
1.928868628e-07
1.877252037e-07
1.886313796e-07
1.896142213e-07
1.902870265e-07
1.931944487e-07
1.882566376e-07
1.889844405e-07
1.897551286e-07
1.910062848e-07
1.94043517e-07
1.89063465e-07
1.898375237e-07
1.902692235e-07
1.918432557e-07
1.95371945e-07
1.900777495e-07
1.908435432e-07
1.908948909e-07
1.932536847e-07
1.967421911e-07
1.904736599e-07
1.915957124e-07
1.925168723e-07
1.971321101e-07
2.015817186e-07
-1.792080246e-08
-1.433382736e-08
-1.192376891e-08
-4.414757901e-08
-5.564315332e-08
2.696602778e-07
1.542202088e-07
1.502249895e-07
1.158301377e-07
-8.79432815e-07
-4.011837559e-08
2.547179985e-08
1.817204617e-08
-2.062192186e-08
-7.280051643e-08
-9.419023746e-08
-4.547412297e-09
2.046636151e-08
-2.980228133e-08
-4.830444114e-08
-4.581182286e-08
2.734515031e-08
1.478670219e-07
-1.794450393e-07
-2.300269206e-08
1.203020606e-07
9.093688653e-08
6.68515867e-08
-7.197440719e-08
-1.357388284e-07
-3.544038726e-08
4.370920689e-08
1.230344923e-07
-1.086698382e-07
-1.607841713e-07
-2.025265157e-07
-4.470135419e-08
2.671792423e-08
-4.460291932e-08
-9.050926921e-08
-1.219763678e-07
-1.085571892e-07
-6.535262239e-08
-1.866838565e-07
-1.046449055e-07
-1.11788699e-07
-2.841585364e-07
-2.401213825e-07
-1.076230192e-07
3.059992695e-08
6.705492352e-08
-1.484404853e-07
-1.423054119e-07
-8.435167031e-08
-1.42376588e-08
1.234748523e-08
2.542938985e-07
-8.073757379e-08
-1.178083755e-09
-2.478910481e-08
-1.649582812e-08
7.752039544e-09
1.375035749e-08
5.772785412e-09
-4.7630927e-08
-4.007144249e-08
4.284430796e-09
4.584707276e-09
-2.443175283e-08
-5.206566221e-08
-3.884667935e-08
-3.94584081e-08
-9.997265229e-09
-4.625842664e-08
-5.53020106e-08
-4.030204714e-08
-6.494576435e-08
-3.968596046e-08
-4.318226111e-08
-6.45167515e-08
-3.580993501e-08
-6.779848294e-08
-5.760468937e-08
-3.869404674e-08
-2.213887521e-08
-5.439516193e-08
-5.752779871e-08
-4.999666979e-08
-4.841478484e-08
-1.137518157e-07
-4.58744525e-09
-4.645482196e-08
-6.389746144e-08
-3.508578627e-08
1.896703064e-07
-3.100646682e-07
4.400381713e-08
3.863071092e-08
-3.049309049e-08
-3.903373262e-07
2.041466208e-07
1.948755849e-07
2.689615725e-07
2.198260586e-07
-3.145834361e-05
1.850883012e-07
2.07813179e-07
3.917677886e-07
4.755482534e-06
8.827287866e-06
2.618370275e-07
4.765039548e-07
-6.628984985e-05
1.162764214e-05
1.758707173e-05
2.606230858e-07
1.024744617e-06
2.808354105e-05
1.548153781e-05
2.446744735e-05
9.217736718e-08
-2.00122023e-07
3.338424648e-06
1.678255573e-05
1.983678012e-05
1.224223785e-07
-4.451444538e-07
2.585755097e-06
1.631966775e-05
1.450123044e-05
4.832219669e-07
2.455751251e-06
6.110379876e-06
1.155246589e-05
9.337786637e-06
9.806146803e-07
-5.405021764e-05
1.065708307e-05
6.095463282e-06
5.806663705e-06
1.844785516e-06
2.805150651e-05
7.446999959e-06
6.960781572e-06
4.426336528e-06
-1.508661186e-06
-2.333114082e-07
1.328164749e-06
4.017799924e-06
2.360072869e-06
-5.946288342e-06
-7.716033972e-06
1.151364994e-06
2.897082425e-06
1.361704662e-06
-2.340257833e-05
-1.229191164e-05
-3.031836756e-06
2.318580435e-06
4.919174195e-06
-1.290383493e-05
-8.793414265e-06
-4.202591948e-06
-1.338848371e-06
7.01682624e-07
-4.123080733e-06
-6.03974358e-06
-2.688182883e-06
-1.100465797e-06
-1.95453033e-06
-2.489940026e-06
-2.103898002e-06
-4.602039625e-06
-5.245647437e-06
-6.050845708e-06
6.907210967e-07
-2.131197013e-06
-4.76433388e-06
-6.413098584e-06
-9.113544931e-06
-2.492789261e-06
-3.515369081e-06
-5.102824019e-06
-7.780906415e-06
-7.26152537e-06
-1.86180735e-05
-2.071841304e-05
-2.62829494e-05
-2.957899546e-05
-3.376832465e-05
-9.225852084e-05
-0.0001013400169
-0.000123298058
-0.0001546323756
-0.0001946649455
-0.0003700347216
-0.0004160808981
-0.0005110053827
-0.0006484395591
-0.0008077589084
-0.001058818069
-0.001152924328
-0.001358637949
-0.001676083724
-0.002120198216
-0.001803444695
-0.001860163236
-0.001996464724
-0.002208398828
-0.002507998827
-0.001825235491
-0.001836204325
-0.001848594485
-0.001864432558
-0.001879557319
-0.001351806505
-0.001331323379
-0.00125237895
-0.001188601376
-0.001052522112
-0.0007538315467
-0.0007305902739
-0.0006711651943
-0.0005478311796
-0.0004272854117
-0.0003001487421
-0.0002720237368
-0.0002255682027
-0.0001586386431
-6.234998883e-05
-8.247549107e-05
-7.264752215e-05
-4.175186045e-05
3.958540263e-06
5.04826653e-05
-5.516319717e-05
-3.846911964e-05
-2.996764332e-05
-5.249684703e-06
2.393115471e-05
-0.0001404464868
-0.0001325161627
-0.0001327809852
-0.000116970303
-0.0001007174267
-0.0002951793281
-0.0002964837098
-0.0002844458328
-0.0002796406425
-0.0002792982698
-0.000489882099
-0.0004862144855
-0.0004875354464
-0.000464543194
-0.0004582027008
-0.0006350137555
-0.0006348009292
-0.000632276569
-0.0006317695899
-0.0006199911541
-0.0007508341418
-0.0007436192394
-0.0007423895697
-0.0007409419434
-0.0007277619477
-0.0007848501873
-0.000781661733
-0.0007805940674
-0.000773680437
-0.0007597503099
-0.0007404126589
-0.0007405308837
-0.0007364141474
-0.0007296208776
-0.0007223173046
-0.000640463441
-0.000636055572
-0.0006312730503
-0.000629329929
-0.0006155667681
-0.0004969353788
-0.0004970582316
-0.0004929437986
-0.000488927153
-0.0004816224764
-0.0003493318315
-0.0003502227903
-0.0003468270842
-0.0003456960535
-0.0003365271079
-0.0002237425868
-0.0002166151966
-0.0002165452063
-0.0002169691628
-0.0002155861041
-0.0001121902579
-0.0001155778188
-0.0001155326141
-0.0001115765925
-0.0001144240486
-4.086356812e-05
-4.222960602e-05
-4.161674511e-05
-4.126781266e-05
-4.150692704e-05
1.300835906e-06
2.23074491e-06
2.450093869e-06
7.785988129e-07
3.692185827e-06
2.790597054e-05
2.469457626e-05
2.507955896e-05
2.429264218e-05
2.651483265e-05
3.348837118e-05
3.278070188e-05
3.256937898e-05
3.148880646e-05
3.402310664e-05
3.225000444e-05
3.031295252e-05
3.01869444e-05
3.072324601e-05
3.051932347e-05
2.620037678e-05
2.631578933e-05
2.592323312e-05
2.534998347e-05
2.377242979e-05
2.005266963e-05
1.914315923e-05
1.888616905e-05
1.850645777e-05
1.786387551e-05
1.363530771e-05
1.280156714e-05
1.2445069e-05
1.22473289e-05
1.285989497e-05
8.678122819e-06
7.742992485e-06
7.669237122e-06
7.182992217e-06
8.709242098e-06
4.679985359e-06
4.235293895e-06
3.993551545e-06
4.08849846e-06
3.914647559e-06
2.888479409e-07
6.25903439e-07
2.30208706e-07
-1.196493542e-07
9.286803401e-07
-7.738696633e-08
2.359365893e-07
2.836220501e-07
-2.374548806e-07
-2.191811413e-06
7.763005365e-07
-7.24207134e-07
-1.081752085e-06
-3.287060196e-07
-2.353809642e-06
-7.812032354e-07
-4.221827384e-07
-6.806663386e-07
-1.039786033e-06
-3.457461195e-08
6.65268017e-07
-7.797522728e-07
-7.902782407e-08
-8.822496478e-07
-8.486545622e-07
1.278014931e-06
2.434171131e-07
3.431912756e-07
2.914287167e-07
2.226614318e-08
4.316329832e-07
8.479164457e-07
6.102895273e-07
7.748580936e-07
-1.521902024e-06
1.241399624e-06
1.502721135e-06
1.343805886e-06
1.395739142e-06
-6.075839457e-07
1.955702003e-06
2.102869299e-06
2.068966945e-06
1.954217918e-06
2.670700591e-07
2.779588771e-06
2.588148559e-06
2.559523979e-06
2.588039855e-06
1.19911708e-06
2.841299583e-06
2.762171265e-06
2.731296411e-06
2.810969791e-06
1.579101516e-06
2.915185671e-06
3.054494263e-06
3.164702734e-06
3.09428704e-06
1.942398106e-06
4.13086249e-06
4.212515971e-06
4.257086412e-06
3.977604335e-06
5.639166987e-07
4.986370136e-06
4.758966465e-06
4.734738584e-06
4.99626754e-06
3.366520391e-06
6.018612178e-06
6.317207443e-06
5.970280867e-06
6.131509629e-06
5.655696317e-06
7.739852356e-06
7.456848846e-06
7.478607893e-06
7.409205037e-06
7.07613941e-06
7.632813302e-06
7.621392131e-06
7.607764762e-06
7.443852204e-06
7.239908398e-06
9.546934326e-06
9.362058e-06
9.369918595e-06
9.200315339e-06
9.064713702e-06
9.746357431e-06
9.697559885e-06
9.700070225e-06
9.450477859e-06
9.369205967e-06
1.006532165e-05
9.95776046e-06
9.915448174e-06
9.795076314e-06
9.732113365e-06
-0.0001084253638
-2.53021811e-05
-9.734391165e-06
-6.328775518e-06
1.587050732e-05
8.362723958e-06
7.359738745e-06
4.669423892e-06
1.453100103e-06
1.998766716e-06
-4.369491847e-08
7.78187458e-06
-2.21936791e-06
-4.503181896e-06
-6.329056597e-06
-3.888552999e-06
-1.341450532e-05
-2.741161942e-05
-0.0002059174607
-0.0008877759683
-0.002527889629
-0.002767321947
-0.001875345672
-0.0009619884305
-0.0002714439808
2.738684357e-05
0.0001252925441
3.651612263e-05
-9.953812526e-05
-0.0002643407979
-0.0004479489218
-0.0006432122414
-0.0007424263329
-0.0007798503847
-0.000713425567
-0.0006199579207
-0.0004819611427
-0.0003496437937
-0.0002001885234
-0.0001073640512
-4.398538139e-05
-6.728642328e-06
1.246347514e-05
1.968427252e-05
2.64874436e-05
2.735484353e-05
1.866619469e-05
7.598943794e-06
1.603546423e-07
1.25147041e-06
8.40370682e-07
5.496175961e-06
2.152020849e-06
-5.877334576e-06
-1.114525665e-06
-1.212694671e-06
6.104660699e-06
6.347987635e-06
6.498940248e-06
5.663975647e-06
5.452658258e-06
5.828072241e-06
8.488385101e-06
8.797788652e-06
6.45771782e-06
7.576276221e-06
8.185009498e-06
8.805177246e-06
9.060882074e-06
9.21678052e-06
-2.615652351e-05
6.660359682e-08
-4.534167387e-07
5.01616974e-07
7.86342087e-06
-4.456553633e-07
2.847257327e-07
-1.152783774e-06
3.828815501e-07
4.82815404e-07
5.951297658e-06
2.695946938e-06
1.136475288e-06
-2.467197185e-06
-9.513952801e-06
9.888704576e-06
-9.569184715e-06
2.632499262e-08
-6.346997274e-07
5.069943856e-06
2.002340554e-05
5.568413955e-05
5.124466664e-06
4.513762631e-06
6.499844537e-06
-2.757402359e-06
5.893636372e-05
5.476783506e-05
-8.303098992e-06
-2.860375457e-06
1.236618003e-05
0.0001088126904
2.662032667e-05
2.467400316e-06
-1.975438574e-06
8.137825022e-07
1.174505745e-05
-5.744075677e-05
-2.84496814e-06
-6.004638967e-07
-3.192651796e-06
-4.837743813e-06
-4.533902861e-06
-1.234029206e-05
-1.297140885e-06
2.102888166e-06
3.080059665e-06
-3.247765452e-05
7.841069837e-05
-2.209008385e-07
8.888815172e-06
4.415209682e-06
-2.231272158e-05
-0.0001087600495
-1.126055236e-06
3.621892269e-06
7.078285334e-06
-4.933449117e-06
-0.0001163121527
-8.994908638e-06
-4.738853923e-07
7.245871788e-05
3.872922028e-06
-5.902838198e-06
3.989057888e-07
-6.200992215e-06
-2.566091797e-05
-2.705883166e-06
-9.868229417e-07
-1.032770992e-06
-6.037403497e-06
-3.073359156e-05
-2.96935762e-06
-1.665203447e-06
-5.186152241e-05
-1.701603662e-05
-3.235639233e-05
-6.351780327e-06
-3.811985864e-06
7.562458285e-05
-6.905703097e-06
-1.668200749e-05
-9.442858475e-06
2.443608162e-06
-9.442063674e-06
-3.664257039e-05
-2.267441802e-05
-4.427079566e-06
-4.446936709e-06
-7.420291809e-07
-0.0002048640576
-0.0001438992505
-6.156170371e-05
-3.862877131e-05
-3.871217956e-05
-0.0009126870358
-0.0008143667742
-0.0007477027093
-0.001006488775
-0.001294123997
-0.003118221246
-0.004649787834
-0.007312756002
-0.01222888242
-0.0204635848
-0.003205975559
-0.003963138819
-0.004524556912
-0.004200143857
-0.002186220651
-0.001953033605
-0.001846661674
-0.001334273364
-0.0002272327033
0.001571030878
-0.0007889319014
-0.0003809757877
0.0002327451389
0.001056212511
0.002009112111
-0.0001415306286
0.0002022758014
0.0006309259226
0.001100172544
0.001541815745
0.0001314326208
0.0003460671027
0.0005765057841
0.0007954288594
0.0009681657275
0.0001678998719
0.0002884466397
0.0003881333469
0.0004823400097
0.0005344312791
7.824981982e-05
0.0001336133498
0.0001660435108
0.0001964887241
0.0002113229324
-6.831690735e-05
-5.138928899e-05
-2.987593932e-05
-6.447425981e-05
-6.147621835e-05
-0.0002602250558
-0.0002926033565
-0.0002456378796
-0.0002679137017
-0.00027461496
-0.0004551265762
-0.0004461081523
-0.0004415799344
-0.0004542127323
-0.0004525474685
-0.0006100017319
-0.0006031536113
-0.0005816158778
-0.0005805008338
-0.0005809742494
-0.0007151763931
-0.0007002110888
-0.0006843156589
-0.0006614438588
-0.0006403443504
-0.0007477266727
-0.0007255973063
-0.0007059697925
-0.0006821011772
-0.0006522206421
-0.0007049985655
-0.0006847201242
-0.0006634691474
-0.0006343305196
-0.0006051648127
-0.0006002085237
-0.0005886324321
-0.0005659520132
-0.0005414845832
-0.0005125372742
-0.0004731934465
-0.0004604850247
-0.0004445955239
-0.0004223339934
-0.0003993046804
-0.0003337596707
-0.000327257273
-0.0003149491012
-0.0003008033792
-0.0002827197814
-0.0002122010934
-0.000207247139
-0.0001993737901
-0.0001912959639
-0.0001790353654
-0.0001131089182
-0.0001114052794
-0.0001088457385
-0.0001036136108
-9.760859137e-05
-4.395184102e-05
-4.437554436e-05
-4.383004665e-05
-4.155390364e-05
-3.973546343e-05
6.701795952e-08
-2.034406998e-06
-3.851188701e-06
-3.517815671e-06
-5.124679051e-06
2.228197326e-05
1.955716277e-05
1.790237345e-05
1.49205633e-05
1.431335065e-05
2.909864326e-05
2.613991713e-05
2.499575585e-05
2.296319747e-05
2.08488087e-05
2.840337477e-05
2.658303484e-05
2.467433365e-05
2.218339173e-05
1.968981658e-05
2.28699516e-05
2.14455496e-05
1.987375715e-05
1.773676403e-05
1.527618035e-05
1.704464229e-05
1.546999424e-05
1.384654281e-05
1.168046269e-05
1.004510154e-05
1.109601793e-05
9.576473506e-06
8.381839682e-06
6.606870277e-06
5.221708893e-06
6.613374135e-06
5.043830744e-06
4.020081387e-06
2.674249162e-06
-5.796163963e-07
2.797874673e-06
1.722711871e-07
-1.003207421e-06
-5.288333771e-07
-2.017856455e-06
1.979813926e-07
-7.300038026e-07
-1.337148283e-06
-2.63010835e-06
-3.832390446e-06
-1.749500741e-06
-1.994661965e-06
-2.890649667e-06
-3.946429284e-06
-4.979300623e-06
-2.147485851e-06
-2.629826241e-06
-3.394834089e-06
-4.444689191e-06
-5.272541629e-06
-1.469325866e-06
-2.595663379e-06
-3.464187236e-06
-4.227864571e-06
-5.162825984e-06
-1.606684695e-06
-2.097480916e-06
-2.723545739e-06
-4.737378637e-06
-4.625539674e-06
-1.760680788e-06
-1.869849631e-06
-2.275048134e-06
-3.086655514e-06
-3.792417111e-06
-8.13254254e-07
-8.117531383e-07
-1.496457877e-06
-2.11404812e-06
-2.789040299e-06
2.716455673e-08
1.412416126e-08
-5.871580894e-07
-1.143408739e-06
-1.779151927e-06
8.179204385e-07
7.879753261e-07
2.60952623e-07
-2.606840784e-07
-8.316138857e-07
1.567607516e-06
1.395604776e-06
7.488621605e-07
2.658163908e-07
-2.351656554e-07
1.834443633e-06
1.7256055e-06
1.333998452e-06
1.085578151e-06
9.685860837e-07
2.40258191e-06
2.691962764e-06
2.443192912e-06
2.100950118e-06
1.505253167e-06
1.45357562e-06
3.011996911e-06
2.964504781e-06
2.702679847e-06
2.468038501e-06
4.060856428e-06
4.205193931e-06
3.927496823e-06
3.657749126e-06
3.384915231e-06
5.59948216e-06
5.374585049e-06
5.060713869e-06
4.735850292e-06
4.404264772e-06
6.916178357e-06
6.64699434e-06
6.203455478e-06
4.675771813e-06
4.275696033e-06
6.959208393e-06
6.614665893e-06
7.042564483e-06
6.548163595e-06
6.094963248e-06
8.641010208e-06
8.28625482e-06
7.858106349e-06
7.336981304e-06
6.877223816e-06
8.977017553e-06
8.660069775e-06
8.462126716e-06
8.158545065e-06
7.77383433e-06
9.254320516e-06
7.159251744e-06
7.764667544e-06
7.155986693e-06
6.956502357e-06
1.264363455e-05
-2.842774311e-05
-9.381871431e-06
-4.311738649e-06
-3.275429654e-06
-2.984162622e-06
-2.884586148e-06
-2.848804801e-06
-2.837761062e-06
-2.832069932e-06
-2.828322521e-06
-2.823799047e-06
-2.818901234e-06
-2.815415208e-06
-2.813575803e-06
-2.815502573e-06
-2.814020603e-06
-2.808270868e-06
-2.806090138e-06
-2.805233036e-06
-2.804629588e-06
-2.804067915e-06
-2.803524625e-06
-2.803068003e-06
-2.802769979e-06
-2.802540656e-06
-2.802365265e-06
-2.802250306e-06
-2.802191716e-06
-2.802176726e-06
-2.802189893e-06
-2.802210601e-06
-2.802239141e-06
-2.802306174e-06
-2.802407093e-06
-2.802528489e-06
-2.802655607e-06
-2.802790883e-06
-2.802951574e-06
-2.803130302e-06
-2.803307706e-06
-2.803482332e-06
-2.803663864e-06
-2.803831931e-06
-2.804021254e-06
-2.804220912e-06
-2.804416915e-06
-2.804621222e-06
-2.80482079e-06
-2.80502007e-06
-2.805199918e-06
-2.805375099e-06
-2.805533499e-06
-2.805721965e-06
-2.806084618e-06
-2.807087715e-06
-2.80819455e-06
-2.798330788e-06
-2.728193106e-06
-2.639866595e-06
-5.642790581e-06
-7.18936905e-05
-2.10917443e-05
-9.469946265e-06
-7.423794966e-06
-6.887006298e-06
-6.681610829e-06
-6.590147734e-06
-6.548432103e-06
-6.532032845e-06
-6.52254616e-06
-6.515861475e-06
-6.51113641e-06
-6.506464883e-06
-6.503673877e-06
-6.507304063e-06
-6.508659704e-06
-6.504303973e-06
-6.505598741e-06
-6.507721907e-06
-6.508624739e-06
-6.508902924e-06
-6.508940307e-06
-6.508807352e-06
-6.508748629e-06
-6.508913834e-06
-6.509125189e-06
-6.509633681e-06
-6.510223102e-06
-6.510756913e-06
-6.511467701e-06
-6.51218e-06
-6.512906379e-06
-6.513993428e-06
-6.515149779e-06
-6.516141052e-06
-6.517223371e-06
-6.518303574e-06
-6.51948208e-06
-6.520572204e-06
-6.52178151e-06
-6.52302425e-06
-6.524196082e-06
-6.525427325e-06
-6.526845328e-06
-6.528126134e-06
-6.52941889e-06
-6.530565581e-06
-6.53160584e-06
-6.532836484e-06
-6.533616248e-06
-6.534781078e-06
-6.535643084e-06
-6.536700529e-06
-6.53823321e-06
-6.54353725e-06
-6.560987032e-06
-6.617424473e-06
-6.77474867e-06
-6.987594204e-06
-2.059956593e-05
-7.908849759e-05
-1.722181921e-05
-9.117147527e-06
-8.113801006e-06
-7.851816208e-06
-7.740237389e-06
-7.656997867e-06
-7.625154015e-06
-7.616549302e-06
-7.612020701e-06
-7.619319599e-06
-7.622563168e-06
-7.62666231e-06
-7.628545244e-06
-7.632410472e-06
-7.641099674e-06
-7.653298074e-06
-7.668073599e-06
-7.680064887e-06
-7.688169093e-06
-7.693443794e-06
-7.697526991e-06
-7.701391499e-06
-7.705401032e-06
-7.709517829e-06
-7.71351648e-06
-7.717483249e-06
-7.72138812e-06
-7.725098085e-06
-7.728697125e-06
-7.732316964e-06
-7.735840468e-06
-7.739465595e-06
-7.742908881e-06
-7.746311786e-06
-7.749928385e-06
-7.753133122e-06
-7.756360767e-06
-7.759531066e-06
-7.762651673e-06
-7.765767541e-06
-7.768865338e-06
-7.771839481e-06
-7.774935596e-06
-7.77780189e-06
-7.780632288e-06
-7.783262059e-06
-7.785711542e-06
-7.788182133e-06
-7.79040334e-06
-7.792580412e-06
-7.794329879e-06
-7.796397654e-06
-7.799121459e-06
-7.806677562e-06
-7.83072608e-06
-7.905225962e-06
-8.08081267e-06
-8.248157113e-06
-2.112618995e-05
-6.158901415e-05
-1.026162363e-05
-4.556097692e-06
-5.335011967e-06
-5.643928993e-06
-5.742646994e-06
-5.774135132e-06
-5.805644003e-06
-5.831557995e-06
-5.85973924e-06
-5.886610751e-06
-5.911762741e-06
-5.933622891e-06
-5.950635094e-06
-5.966680102e-06
-5.990993285e-06
-6.026065084e-06
-6.058536294e-06
-6.083912374e-06
-6.1024655e-06
-6.116485934e-06
-6.128404946e-06
-6.139593024e-06
-6.150174938e-06
-6.159997066e-06
-6.169223454e-06
-6.177866248e-06
-6.185965385e-06
-6.193609882e-06
-6.200759879e-06
-6.207480196e-06
-6.21376945e-06
-6.219756172e-06
-6.225364985e-06
-6.230633383e-06
-6.235753023e-06
-6.240527352e-06
-6.245185384e-06
-6.249665486e-06
-6.253962926e-06
-6.258037189e-06
-6.261966429e-06
-6.265666855e-06
-6.269310696e-06
-6.272724477e-06
-6.276008656e-06
-6.279072342e-06
-6.281997957e-06
-6.284671052e-06
-6.287158187e-06
-6.289377586e-06
-6.291316236e-06
-6.293175896e-06
-6.295447892e-06
-6.299505927e-06
-6.309314947e-06
-6.328823134e-06
-6.341725111e-06
-6.310947489e-06
-2.581933785e-05
-7.191824815e-05
-4.655315078e-05
-3.178967995e-06
-2.30448e-06
-2.785175054e-06
-2.995639298e-06
-3.111039712e-06
-3.190904257e-06
-3.254622775e-06
-3.307067455e-06
-3.34774211e-06
-3.382325689e-06
-3.409651776e-06
-3.429336398e-06
-3.445736376e-06
-3.473411224e-06
-3.51405202e-06
-3.550309873e-06
-3.578058631e-06
-3.598351561e-06
-3.61439823e-06
-3.62845738e-06
-3.641592977e-06
-3.65384487e-06
-3.66508523e-06
-3.67551407e-06
-3.685115085e-06
-3.693945533e-06
-3.702102239e-06
-3.709542335e-06
-3.716376774e-06
-3.722603519e-06
-3.728250366e-06
-3.733376273e-06
-3.738051022e-06
-3.742373728e-06
-3.746389816e-06
-3.750236615e-06
-3.753866269e-06
-3.757317126e-06
-3.760530574e-06
-3.76360075e-06
-3.766456658e-06
-3.769179306e-06
-3.771709683e-06
-3.774218618e-06
-3.776555119e-06
-3.778843659e-06
-3.780844125e-06
-3.782694958e-06
-3.784236795e-06
-3.785685746e-06
-3.786676307e-06
-3.787399327e-06
-3.786088451e-06
-3.77835255e-06
-3.744591049e-06
-3.642807171e-06
-3.514198727e-06
-2.874558104e-05
-6.857475504e-05
-0.0001284151888
-3.273417692e-05
-5.521819272e-07
-6.265941992e-07
-1.006438181e-06
-1.163996363e-06
-1.267543131e-06
-1.336816998e-06
-1.391219966e-06
-1.430360121e-06
-1.456536739e-06
-1.477138105e-06
-1.490850244e-06
-1.499593104e-06
-1.520931852e-06
-1.552019545e-06
-1.580299195e-06
-1.602261733e-06
-1.617999762e-06
-1.63025465e-06
-1.641156347e-06
-1.651391086e-06
-1.660900664e-06
-1.669777831e-06
-1.677894009e-06
-1.685143254e-06
-1.691715268e-06
-1.697642677e-06
-1.702819981e-06
-1.707444991e-06
-1.711501242e-06
-1.7150388e-06
-1.718085528e-06
-1.720726176e-06
-1.723008209e-06
-1.725004973e-06
-1.726845092e-06
-1.728490698e-06
-1.729973305e-06
-1.73137275e-06
-1.732711144e-06
-1.733943916e-06
-1.735154605e-06
-1.736315252e-06
-1.737504926e-06
-1.738670905e-06
-1.739941834e-06
-1.741026221e-06
-1.742136896e-06
-1.743031798e-06
-1.74394218e-06
-1.744388935e-06
-1.744115969e-06
-1.740346969e-06
-1.726059482e-06
-1.679976704e-06
-1.571948826e-06
-1.459638509e-06
-1.03182979e-05
-7.209420177e-05
-0.0001795239261
-0.0001726756403
-1.106545798e-05
2.070236559e-06
3.405810628e-07
-5.801261313e-08
-2.029431525e-07
-2.908294878e-07
-3.357140521e-07
-3.727805148e-07
-3.938462547e-07
-4.040597965e-07
-4.151514246e-07
-4.21005242e-07
-4.344612015e-07
-4.566253716e-07
-4.761655656e-07
-4.902082703e-07
-4.999498987e-07
-5.068469948e-07
-5.133308407e-07
-5.195011791e-07
-5.254157896e-07
-5.309893625e-07
-5.359903301e-07
-5.404086575e-07
-5.443888425e-07
-5.477109013e-07
-5.505189875e-07
-5.528698024e-07
-5.547188701e-07
-5.561340968e-07
-5.572626984e-07
-5.579078786e-07
-5.583775291e-07
-5.585970953e-07
-5.586596756e-07
-5.586050646e-07
-5.584492255e-07
-5.582686815e-07
-5.581587352e-07
-5.579941917e-07
-5.580004617e-07
-5.581299451e-07
-5.583215343e-07
-5.586500793e-07
-5.591051045e-07
-5.59661505e-07
-5.603193684e-07
-5.609763303e-07
-5.617536325e-07
-5.620692374e-07
-5.621664004e-07
-5.586994906e-07
-5.476846158e-07
-5.14967538e-07
-4.481803394e-07
-3.848566835e-07
-3.832964486e-06
-4.023859472e-05
-0.00017856669
-0.0002832004864
-0.0001002656385
1.157618705e-05
2.92118855e-06
7.715314714e-07
3.693481021e-07
2.13744898e-07
1.372413936e-07
1.066099172e-07
7.947388503e-08
6.840476958e-08
6.432988004e-08
5.732639223e-08
4.625808424e-08
3.100054583e-08
1.5750457e-08
4.921188685e-09
2.305321706e-10
-4.115181289e-09
-6.58618269e-09
-9.976177313e-09
-1.335691756e-08
-1.697022598e-08
-1.98934962e-08
-2.244618278e-08
-2.473633623e-08
-2.665969693e-08
-2.803941099e-08
-2.906254427e-08
-2.963940056e-08
-2.989530788e-08
-2.964318036e-08
-2.938534287e-08
-2.859671263e-08
-2.791234203e-08
-2.677102488e-08
-2.57695356e-08
-2.446917827e-08
-2.35067311e-08
-2.229909795e-08
-2.120183063e-08
-2.050127783e-08
-1.988921476e-08
-1.951067468e-08
-1.935293998e-08
-1.952101611e-08
-1.95705847e-08
-1.992935565e-08
-2.072827782e-08
-2.147125906e-08
-2.21058044e-08
-2.232927218e-08
-2.092740117e-08
-1.523518753e-08
8.064246415e-10
3.111606063e-08
5.856337033e-08
-1.774845124e-06
-1.93910949e-05
-0.0001817559395
-0.0003337268347
-0.0003016765176
2.424453166e-05
1.67688051e-05
2.802356159e-06
9.240927721e-07
5.289621007e-07
3.685934962e-07
2.961792616e-07
2.713173014e-07
2.497212584e-07
2.427966915e-07
2.39558944e-07
2.270574749e-07
2.121790011e-07
2.018341128e-07
1.925572173e-07
1.868394988e-07
1.85309344e-07
1.843379474e-07
1.8134882e-07
1.79675216e-07
1.769039065e-07
1.745867365e-07
1.726284934e-07
1.707960396e-07
1.694898183e-07
1.687235511e-07
1.678289389e-07
1.67499247e-07
1.675577104e-07
1.684339642e-07
1.69040782e-07
1.698923632e-07
1.717108275e-07
1.729456064e-07
1.747224353e-07
1.76565208e-07
1.784607303e-07
1.790254365e-07
1.82019326e-07
1.830975322e-07
1.839409438e-07
1.846709647e-07
1.851867402e-07
1.853752718e-07
1.85322599e-07
1.849452101e-07
1.843634233e-07
1.835976416e-07
1.827881405e-07
1.82093847e-07
1.820698181e-07
1.837744429e-07
1.894189289e-07
2.002492489e-07
2.103822752e-07
-1.332688723e-06
-1.019957852e-05
-0.0001226378067
-0.000375507784
-0.000476121758
-8.547234631e-06
9.822240429e-05
1.093406924e-05
2.114976425e-06
9.037067815e-07
5.553047857e-07
3.930801089e-07
3.556213248e-07
3.263426496e-07
3.037654406e-07
3.024048436e-07
2.918714635e-07
2.734584871e-07
2.626398886e-07
2.567235305e-07
2.512364031e-07
2.485703627e-07
2.474458471e-07
2.457154929e-07
2.43356943e-07
2.409700705e-07
2.387820106e-07
2.366718591e-07
2.346819468e-07
2.330541156e-07
2.318562359e-07
2.310358905e-07
2.305868376e-07
2.305683939e-07
2.31046361e-07
2.318779796e-07
2.330206654e-07
2.345516658e-07
2.363073149e-07
2.382244519e-07
2.404866812e-07
2.42398973e-07
2.444709793e-07
2.464654379e-07
2.481257561e-07
2.494606386e-07
2.50503719e-07
2.512623245e-07
2.516965405e-07
2.517897318e-07
2.515504644e-07
2.510257622e-07
2.502618587e-07
2.493488043e-07
2.483697828e-07
2.47532894e-07
2.472057347e-07
2.482115276e-07
2.512379537e-07
2.54822789e-07
7.342930781e-07
0.0002416934513
-3.171446029e-05
-0.0004167556734
-0.0006100504681
-0.0002822383703
0.0002791438646
3.927381227e-05
5.207548288e-06
1.708413924e-06
7.977356049e-07
5.011021103e-07
4.159099263e-07
3.63450681e-07
3.343577521e-07
3.269424151e-07
3.146143217e-07
2.971666969e-07
2.854464114e-07
2.796904189e-07
2.743982011e-07
2.705336723e-07
2.6876381e-07
2.670630784e-07
2.646140555e-07
2.618340443e-07
2.590758147e-07
2.564668144e-07
2.540442724e-07
2.519219796e-07
2.502586878e-07
2.490550205e-07
2.482407871e-07
2.47868359e-07
2.480009363e-07
2.486304765e-07
2.497027032e-07
2.511596374e-07
2.529572621e-07
2.550143756e-07
2.572375329e-07
2.59500672e-07
2.617364063e-07
2.63843844e-07
2.65749187e-07
2.673622295e-07
2.686544869e-07
2.696319533e-07
2.702528597e-07
2.704977584e-07
2.703834934e-07
2.699310415e-07
2.691998875e-07
2.68250472e-07
2.671337495e-07
2.659270019e-07
2.64791559e-07
2.641514496e-07
2.646050846e-07
2.660903993e-07
-1.752138174e-05
-5.741284841e-06
-3.643846598e-05
-0.000547120243
-0.0008584659772
-0.0006417561086
0.0005412486237
0.0001745891082
1.913499147e-05
3.767593547e-06
1.334728505e-06
6.749415909e-07
4.631131717e-07
3.998976534e-07
3.656465451e-07
3.396202774e-07
3.220240526e-07
3.116729574e-07
3.001808493e-07
2.903476145e-07
2.840106544e-07
2.813751378e-07
2.802195543e-07
2.776389475e-07
2.742581175e-07
2.708303788e-07
2.673724275e-07
2.641064845e-07
2.611574547e-07
2.585152681e-07
2.562540292e-07
2.544740382e-07
2.531803375e-07
2.523777048e-07
2.521103011e-07
2.523981166e-07
2.532125484e-07
2.544895418e-07
2.561628285e-07
2.581545158e-07
2.603710204e-07
2.627062764e-07
2.650404784e-07
2.672808344e-07
2.693573283e-07
2.711764969e-07
2.726637327e-07
2.738128813e-07
2.745905396e-07
2.74968357e-07
2.74961241e-07
2.745857588e-07
2.73891453e-07
2.729343554e-07
2.71757048e-07
2.704047431e-07
2.690045613e-07
2.678917635e-07
2.675908808e-07
2.684620743e-07
-3.088103483e-06
-4.587177127e-06
-3.806237303e-05
-0.000441686761
-0.001099539124
-0.001098697076
0.0005008010999
0.0005390767037
4.961358052e-05
8.690763277e-06
2.360655151e-06
9.326252084e-07
5.347414032e-07
4.221166863e-07
3.789204376e-07
3.570346084e-07
3.410381074e-07
3.172964599e-07
3.037104665e-07
3.004099497e-07
2.949196588e-07
2.913592932e-07
2.887732008e-07
2.846408324e-07
2.812571417e-07
2.778175757e-07
2.736611969e-07
2.695349297e-07
2.658774683e-07
2.626443928e-07
2.597924562e-07
2.574027779e-07
2.555473832e-07
2.542467541e-07
2.535176027e-07
2.5338115e-07
2.538347033e-07
2.548227149e-07
2.56272596e-07
2.581038057e-07
2.602249914e-07
2.625324749e-07
2.649004585e-07
2.672144062e-07
2.693927037e-07
2.713458214e-07
2.729774827e-07
2.742581894e-07
2.751594431e-07
2.756468625e-07
2.757269675e-07
2.754167892e-07
2.747584986e-07
2.738034849e-07
2.725989223e-07
2.711942337e-07
2.697255867e-07
2.685072846e-07
2.679789267e-07
2.686758476e-07
-1.421999557e-06
-5.751390896e-06
-0.0002717925977
-0.0002249883759
-0.001268208579
-0.001483711187
0.0003531889846
0.001040435786
0.0001544015033
2.060398326e-05
4.102446282e-06
1.315143202e-06
6.375751619e-07
4.718770862e-07
4.169767758e-07
3.741000957e-07
3.398767886e-07
3.231433791e-07
3.132059211e-07
3.093753508e-07
3.030787195e-07
2.998714583e-07
2.964470358e-07
2.927484701e-07
2.886860735e-07
2.841374936e-07
2.795108703e-07
2.750139381e-07
2.707237503e-07
2.667869262e-07
2.633127807e-07
2.603270473e-07
2.578760142e-07
2.560311617e-07
2.548123688e-07
2.542148972e-07
2.54245591e-07