/*--------------------------------*- C++ -*----------------------------------*\
  =========                 |
  \\      /  F ield         | OpenFOAM: The Open Source CFD Toolbox
   \\    /   O peration     | Website:  https://openfoam.org
    \\  /    A nd           | Version:  10
     \\/     M anipulation  |
\*---------------------------------------------------------------------------*/
FoamFile
{
    format      ascii;
    class       volScalarField;
    location    "0.0250188088";
    object      ddt0(rho,C2H2);
}
// * * * * * * * * * * * * * * * * * * * * * * * * * * * * * * * * * * * * * //

dimensions      [1 -3 -1 0 0 0 0];

internalField   nonuniform List<scalar> 
5170
(
-2.901861595e-13
-3.411397282e-13
-5.373849178e-13
-1.102363548e-12
2.279443131e-14
1.754168277e-12
1.584885538e-12
1.11056509e-12
-3.371451935e-13
9.099309191e-13
7.121738526e-13
1.039568409e-12
1.852761824e-12
9.769721782e-13
-3.388074901e-13
-8.420683062e-13
-3.610549255e-13
7.177033325e-13
2.589902894e-12
-2.495053217e-12
-2.539460106e-12
-1.848985527e-12
-4.075418512e-13
2.438597343e-12
-1.438953079e-13
-4.442465736e-12
-3.559737215e-12
-1.827511101e-12
1.144468948e-12
3.003606073e-12
1.935623218e-12
3.019324376e-12
4.981876442e-12
4.214500511e-12
1.111610317e-12
5.99462638e-12
6.28812652e-12
3.198010375e-12
-1.405644798e-13
-8.043498792e-13
2.334812664e-12
5.306480139e-13
-1.729311542e-12
-3.746469367e-12
-2.807769217e-12
-3.16007604e-12
-4.642117762e-12
-6.735177807e-12
-7.029971128e-12
-5.509602397e-12
1.105723859e-11
1.339757339e-11
1.644509533e-11
1.709422387e-11
1.167996763e-11
-1.150477167e-11
-1.410070999e-11
-1.622427798e-11
-1.643710179e-11
-8.468477159e-12
-3.839951469e-12
-1.286381299e-12
1.134538579e-12
-1.041883354e-12
-7.241681522e-12
1.109661565e-11
8.660882381e-12
6.685996658e-12
1.06166433e-11
1.835919399e-11
1.962647479e-12
4.342674524e-12
5.771729197e-12
6.3297507e-13
-1.100632607e-11
-1.089963124e-11
-1.318256332e-11
-1.40323783e-11
-8.143052289e-12
2.572845622e-12
3.584596561e-12
5.578293778e-12
5.79436781e-12
-4.423357995e-13
-9.901360397e-12
-1.57683955e-11
-1.423039199e-11
-1.628096391e-11
-1.045856386e-11
-9.550656924e-13
4.66482121e-13
-3.898054871e-13
2.470768702e-11
-1.559476815e-10
-1.923226487e-10
-1.525584674e-10
-2.043659489e-10
-8.50431576e-10
-6.601255734e-09
-3.330687779e-08
1.692567163e-13
1.682197968e-13
1.741491386e-13
1.403517853e-13
-1.352203893e-13
4.050618615e-14
5.462992558e-14
-1.689876232e-15
6.702967971e-15
-1.387360863e-13
-1.072881235e-14
2.11132291e-14
-4.774140125e-14
5.606794784e-14
-5.266933283e-15
-8.223202524e-15
-2.977391854e-14
-3.531066383e-14
1.596084121e-14
-2.798915083e-14
5.691951787e-13
-4.676621656e-14
-5.265853173e-15
1.52715308e-14
1.950322185e-12
6.704863983e-10
2.445777953e-11
2.622061189e-12
-3.392236937e-11
-2.911996322e-10
-3.993125084e-09
9.609794537e-10
4.563988657e-11
2.653158694e-09
1.094425379e-07
1.088632937e-07
-6.777565639e-09
-5.199592157e-09
2.904116871e-07
-1.089517165e-07
-7.658767653e-08
1.005867281e-07
2.63398141e-08
1.366107309e-07
-1.981449907e-07
-7.177585702e-09
-2.456081278e-07
-1.968269898e-07
-9.120446034e-08
-3.735132613e-10
-2.084975546e-09
-1.361954808e-07
-1.224391076e-07
-1.453059868e-07
-2.836177127e-08
-1.369464519e-08
1.029154396e-07
-1.278716046e-08
5.393623903e-09
-1.101015433e-08
-1.521849002e-08
5.045075349e-09
4.897595614e-10
-1.392458048e-08
-3.995046076e-08
-2.96296941e-08
-3.509002725e-09
-1.364157307e-08
-2.587033084e-08
-4.302858043e-08
-4.425891737e-08
-2.621710838e-08
-2.286666902e-08
-3.753337919e-08
-1.032461657e-08
-2.722376937e-08
-3.890490653e-08
-3.514902855e-08
-4.662964351e-08
-2.141761653e-08
-8.50270392e-09
-4.612825351e-08
-4.473211138e-08
1.081386806e-10
2.962761893e-08
-1.989262926e-08
-3.007962055e-09
-2.957654102e-09
-1.830786736e-08
2.164952028e-07
2.047699848e-08
-2.311043064e-08
-1.496085087e-08
1.714779705e-08
-2.176216509e-07
-4.165683865e-07
-1.380230412e-07
-1.835676759e-07
1.8075493e-08
-3.685598559e-08
-7.886505007e-10
-6.893575687e-09
-1.097147802e-07
-1.574017502e-06
-1.665569607e-05
-5.771490303e-08
-5.01981659e-07
-6.440632213e-06
-6.157999675e-05
-0.0003941388865
-3.307391124e-08
-1.810907333e-07
-7.287888121e-06
-0.0001617884803
-0.0009645293901
-5.13997451e-07
-3.859517987e-06
-4.260259225e-05
-0.0003386818459
-0.001089222553
-1.884504578e-06
-1.60380474e-05
-0.0001339505526
-0.0005403952943
-0.001262948116
4.549720939e-07
-1.405086837e-05
-0.0001003249188
-0.0003544232054
-0.000987831415
1.326509482e-05
6.246416164e-05
0.0001293669913
1.302449239e-05
-0.0005171876134
3.412202419e-05
0.0001676738798
0.0004580584749
0.000286261145
7.325543122e-05
3.623768642e-05
0.0001726166715
0.0004364204623
0.0006116050357
0.0007137838791
-2.957999535e-05
-5.955065192e-05
-9.207398388e-06
0.0001886340044
0.0002884896792
-0.0001926306414
-0.0003824284442
-0.0003061621468
-0.000288998623
-0.0003773382067
-0.001183396321
-0.0009664006404
-0.0008206005548
-0.0004840275651
-0.000182215033
-0.0003860992681
-0.0003128216755
-0.0002147450806
3.011888903e-06
0.0003052002643
0.0003812542884
0.0002431738766
0.0006405577692
0.0009555537293
0.0009140384999
0.0004267658983
0.0007521261652
0.0008436938796
0.001066475005
0.00131999019
0.001571919546
0.001424117032
0.00136154442
0.001499960195
0.001533573279
0.001469709681
0.001877889572
0.002773228726
0.003999130874
0.005589187884
0.005132331578
0.006426732528
0.008853374213
0.01219221306
0.01659145765
0.0119192557
0.01357637898
0.01783591131
0.02509899376
0.03588026371
0.01898801367
0.02127110494
0.02714575413
0.03617760561
0.04826106743
0.02413949393
0.02673193429
0.03198926152
0.03903186146
0.04716105942
0.02813820759
0.02962053499
0.03211862695
0.03521064987
0.03807030457
0.02745189677
0.02772679176
0.0284421013
0.02908439547
0.02937272244
0.02496265567
0.02494863784
0.02498022007
0.02486653159
0.02465389699
0.02338948788
0.02326853204
0.02312621188
0.02282767063
0.0221624114
0.02213213562
0.02205735654
0.02185474404
0.02161053501
0.02119187734
0.02070142076
0.02060431264
0.02045322303
0.02021208573
0.01977350125
0.01816236957
0.01815369755
0.01796348983
0.01772019027
0.01738730388
0.01488873765
0.0148589915
0.01469701623
0.01447910644
0.01419170488
0.01149849304
0.01143907602
0.01132696844
0.01115125775
0.0109019947
0.008473050111
0.00844632243
0.008355628124
0.008228564598
0.008043205044
0.006066738461
0.006041293512
0.005984104426
0.005889424397
0.0057780724
0.00422393009
0.004212733152
0.004173136066
0.004109829175
0.004034588805
0.002860308344
0.002850702779
0.002824327572
0.002785961777
0.002737231414
0.001868181016
0.001862103852
0.001846916574
0.001823136819
0.001791101821
0.001173506711
0.001170428907
0.001161789851
0.001147203968
0.00112950788
0.0007088824187
0.0007068191461
0.0007020790397
0.0006942734215
0.0006839816409
0.0004114186594
0.0004103396607
0.0004078950533
0.0004036777688
0.0003983771904
0.0002292603494
0.0002289649079
0.0002276627748
0.0002255223955
0.0002226778407
0.0001227235697
0.0001224566867
0.0001218448957
0.0001208888918
0.0001194723282
6.276964068e-05
6.266964478e-05
6.240567972e-05
6.195307161e-05
6.132766939e-05
3.061877625e-05
3.058805873e-05
3.04790003e-05
3.028174252e-05
3.002354817e-05
1.421056451e-05
1.419591738e-05
1.415564137e-05
1.407965255e-05
1.397742264e-05
6.25537257e-06
6.252712258e-06
6.239215083e-06
6.212044258e-06
6.175443462e-06
2.609294079e-06
2.608960546e-06
2.605388407e-06
2.597131437e-06
2.584852624e-06
1.029979657e-06
1.030476004e-06
1.029884313e-06
1.027765359e-06
1.024310009e-06
3.846243571e-07
3.84950623e-07
3.850675782e-07
3.84744192e-07
3.840288148e-07
1.358384128e-07
1.360178223e-07
1.361804484e-07
1.362430414e-07
1.362484979e-07
4.534903026e-08
4.543075601e-08
4.552861961e-08
4.560855329e-08
4.569168179e-08
1.428871692e-08
1.432195735e-08
1.437067463e-08
1.441958536e-08
1.448011702e-08
4.168024717e-09
4.178536742e-09
4.223939048e-09
4.244932026e-09
4.153783295e-09
1.124713826e-09
1.128650866e-09
1.134436671e-09
1.142008188e-09
1.151316591e-09
2.814714281e-10
2.826169953e-10
2.84595846e-10
2.872491944e-10
2.910411146e-10
5.730984187e-11
5.755868072e-11
5.806272027e-11
5.885239269e-11
6.041958481e-11
1.355777237e-11
1.364813223e-11
1.3818183e-11
1.404559021e-11
1.43504888e-11
2.358768495e-12
2.385415525e-12
2.43030509e-12
2.475942114e-12
2.436149325e-12
-2.781266487e-12
-2.800568274e-12
-2.80649567e-12
-2.773280878e-12
-2.589151545e-12
9.716951927e-15
6.858170426e-15
2.28814096e-15
-4.480241029e-15
-1.668686466e-14
4.639443077e-17
2.064261452e-16
4.196464564e-17
1.494802068e-17
1.962749837e-17
8.907741265e-16
8.19340941e-16
8.190788542e-16
8.731315845e-16
1.090180877e-15
2.196122497e-16
-3.701232276e-16
-1.190758855e-16
-6.980823131e-16
-1.117413529e-15
-1.122335464e-14
-1.170057648e-14
-1.2704793e-14
-1.402463738e-14
-1.545386383e-14
-7.448151504e-14
-7.515611351e-14
-7.637826212e-14
-7.772964656e-14
-8.246940597e-14
-8.343986858e-13
-8.398408469e-13
-8.4207791e-13
-8.338820101e-13
-7.865716688e-13
-8.51427199e-13
-8.563231679e-13
-8.566201675e-13
-8.455082974e-13
-7.943204565e-13
-7.961354962e-13
-8.013874285e-13
-8.027049592e-13
-7.942044045e-13
-7.484376102e-13
-3.655760477e-14
-3.769229777e-14
-4.02097212e-14
-4.257376975e-14
-4.54528001e-14
-3.631223175e-14
-3.6210402e-14
-3.596367586e-14
-3.56750173e-14
-3.541570814e-14
1.152561681e-14
1.10883267e-14
1.016267366e-14
8.786113834e-15
7.029965919e-15
2.366875949e-14
2.382576378e-14
2.407398972e-14
2.41359706e-14
2.369649422e-14
-8.74125885e-06
-0.001850854365
-0.002867494238
-0.003078171298
-0.001607851809
-0.001730832011
-0.0007879727047
0.0001437415379
0.0009662061587
0.0007252503178
9.963101102e-05
5.011846593e-05
-0.0007303318862
0.0002190523232
0.0008931045243
0.003976549619
0.005393841369
0.01993655513
0.04512600314
0.05898892026
0.05265788861
0.03978158698
0.0296574527
0.02388027995
0.02235371155
0.02096372323
0.01971237862
0.01707299785
0.01392063167
0.01076258952
0.007950095119
0.005655768178
0.003961606767
0.002688142987
0.001769889144
0.001115117567
0.000676761267
0.0003940840129
0.0002213483261
0.0001187946511
6.099413655e-05
2.987254205e-05
1.392188937e-05
6.159336306e-06
2.584252608e-06
1.02623854e-06
3.84988742e-07
1.368557643e-07
4.596288772e-08
1.460156012e-08
4.185257239e-09
1.167440798e-09
2.968274624e-10
6.292961287e-11
1.473758125e-11
1.983299833e-12
-2.274073465e-12
-3.702581324e-14
-5.991754097e-16
-1.076705439e-15
-1.13691503e-15
-1.624220844e-14
-7.267566388e-14
-7.063772694e-13
-7.116972453e-13
-6.722487882e-13
-4.926416136e-14
-3.50804924e-14
5.603834607e-15
2.23653915e-14
-4.659304279e-05
1.920275254e-07
-1.038904107e-06
-2.958611015e-08
-8.260179997e-09
-0.001728835236
-0.0005900512338
-0.0004388381823
-2.853291225e-06
-7.658551952e-07
-0.003127466509
-0.003063756787
0.0003694143203
6.034591688e-05
-1.225762944e-06
-0.00344874899
-0.002274977771
-0.01291440234
-0.0005888385661
-7.469461098e-05
-0.001816226063
0.009381664149
0.07659870699
0.01008388484
3.836472063e-05
-0.002261083547
-0.00323196946
0.006271062789
0.000615156722
-0.0001259955598
-0.001081954265
-0.001777362637
0.008755532906
0.0009302794073
0.0003561425072
2.153870883e-05
0.0004159859195
0.02692795932
-0.002265103674
-0.0004562729573
0.0009554288929
0.002736077659
0.01924138298
0.2927021668
0.01824089903
0.001073929689
0.001419113616
-0.02222995981
0.1351549836
-0.01242842505
0.0006348793349
0.001172027579
-0.003304824639
-0.1654780138
0.0007767446876
0.0001466054158
-0.0006997620486
0.0002551634686
-0.001330379015
-0.02734733308
0.0002139393138
-0.0001990118996
0.0007496989328
1.218819131e-05
-0.004462218739
0.0002878227637
0.0007284014248
0.001945586001
0.0007912000165
-0.00264037218
0.001468712624
0.002427548542
0.002661822677
0.002525216791
-0.3084899672
0.002388742941
0.002617507594
-0.0003907989103
-0.001367251054
0.2231456673
0.007041910548
0.00629379511
0.002476132655
0.003752632111
0.006555287836
0.02369538981
0.02930906148
0.02991846897
0.01827183726
0.02611074187
0.05962426195
0.09031920358
0.1225133119
0.1315960533
0.3340049883
0.07409374712
0.100070698
0.1003789248
-0.1008048728
-1.47795063
0.06193909706
0.07334874282
0.0772868604
0.04962413302
-0.1054718206
0.04297813498
0.04441368553
0.04164189327
0.03187007136
0.007843226945
0.03004893735
0.02875581829
0.02492091181
0.01910084168
0.0116801333
0.02382290564
0.02211498938
0.01958555523
0.01644631462
0.01320066964
0.02138278472
0.02020190454
0.01858110054
0.01675243153
0.01488767155
0.02044833627
0.01950363938
0.01831368299
0.01696056681
0.01549449872
0.01914854909
0.0183383505
0.01728053676
0.0160545805
0.01468415156
0.01681630077
0.01608574667
0.01513835064
0.01401162986
0.01276255696
0.01373867399
0.01314144938
0.0123378188
0.01138582328
0.01033332885
0.0105807359
0.01012929959
0.009504324775
0.008761620515
0.0079475831
0.007819282744
0.007496177574
0.007041620165
0.006499524273
0.005907777646
0.005617844077
0.005392840481
0.005077148633
0.004699778356
0.004286040344
0.003932096491
0.003784560672
0.003572885219
0.003318100165
0.003036939468
0.002674864057
0.002580922998
0.00244428394
0.002276584755
0.002091175797
0.001756989592
0.00170128231
0.001615645091
0.001509682045
0.001390879616
0.001111306643
0.001079326493
0.001028304553
0.0009636399152
0.0008905638543
0.0006755150699
0.0006584013278
0.000629136898
0.0005914633632
0.000548148448
0.000394766414
0.0003860226489
0.0003700439529
0.0003488721552
0.0003242888821
0.0002215692588
0.0002174398428
0.0002090826208
0.000197662872
0.0001842402051
0.0001193192327
0.0001174868261
0.0001132962408
0.0001074025944
0.0001003532016
6.147305963e-05
6.073708572e-05
5.873605852e-05
5.582677421e-05
5.228293157e-05
3.021258992e-05
2.995548616e-05
2.905401179e-05
2.768305163e-05
2.598500135e-05
1.412589947e-05
1.405793288e-05
1.367608216e-05
1.306284532e-05
1.22896909e-05
6.269631033e-06
6.26406565e-06
6.112668804e-06
5.853828629e-06
5.519770295e-06
2.637337856e-06
2.646040769e-06
2.590352521e-06
2.487296334e-06
2.350917218e-06
1.05045325e-06
1.058505058e-06
1.039658781e-06
1.000473526e-06
9.485092389e-07
3.953738193e-07
4.002548224e-07
3.950167328e-07
3.814330776e-07
3.623580499e-07
1.412048243e-07
1.435662819e-07
1.420076735e-07
1.375425056e-07
1.310142711e-07
4.761833084e-08
4.864814046e-08
4.830103775e-08
4.673121897e-08
4.494608153e-08
1.517531921e-08
1.567972741e-08
1.562570236e-08
1.510300704e-08
1.446683782e-08
4.384146646e-09
4.523488875e-09
4.501037296e-09
4.413866287e-09
4.240655261e-09
1.222652643e-09
1.26875659e-09
1.275542231e-09
1.25162262e-09
1.205548696e-09
3.113597754e-10
3.253623278e-10
3.284971425e-10
3.240600943e-10
3.234963768e-10
6.586958124e-11
7.983941274e-11
8.190390006e-11
8.106418053e-11
7.850368223e-11
1.590202804e-11
1.716940838e-11
1.744330646e-11
1.453383667e-11
1.392142902e-11
-1.245741533e-13
-1.337367025e-13
-1.569082049e-14
-1.114833814e-14
-7.709000438e-14
-2.909702701e-12
-2.997437096e-12
-2.981868176e-12
-2.975814908e-12
-2.996441605e-12
-6.891061125e-14
-1.137658015e-13
-1.36262459e-13
-1.423419856e-13
-1.414930947e-13
2.170570832e-16
2.804368856e-16
2.431415665e-16
1.693146796e-17
-3.906896576e-16
9.919111844e-16
-1.22686361e-17
-5.854347062e-15
-7.173059851e-16
2.072934758e-16
-1.244764115e-15
-2.156942776e-15
-2.592439179e-15
-2.340951914e-15
-2.012285095e-15
-1.719637545e-14
-1.743929116e-14
-1.664633084e-14
-1.739914564e-14
-6.977800494e-14
-6.550464406e-14
-1.023437677e-13
-7.808541196e-13
-8.191373987e-13
-3.098003154e-13
-8.587903865e-13
-8.71358952e-13
-8.577566765e-13
-8.414607531e-13
-8.367131648e-13
-8.638495699e-13
-8.759754829e-13
-8.599502289e-13
-8.468564132e-13
-8.444414032e-13
-8.354395963e-13
-8.666366345e-13
-8.125507348e-13
-9.195147225e-14
-4.659875589e-14
-4.892591227e-14
-5.14999538e-14
-6.787505817e-14
-6.227540073e-14
-6.114517714e-14
-3.485479076e-14
-3.503677291e-14
-3.493961238e-14
-3.496870766e-14
-3.492626054e-14
3.161830643e-15
3.759435544e-17
-1.774760099e-15
-2.701927857e-15
-4.623389943e-15
1.890159033e-14
-6.064739054e-15
-2.795662967e-15
-1.147220483e-14
-1.537803709e-14
-1.923360429e-09
1.677488797e-10
1.499267769e-11
9.434072071e-12
-8.5810901e-12
-5.054466955e-13
8.35032314e-15
2.813778807e-16
3.3307156e-16
3.342257775e-16
3.344776258e-16
3.346867248e-16
3.348786253e-16
3.350598799e-16
3.354763368e-16
3.329873365e-16
3.331926156e-16
3.359137627e-16
3.357715403e-16
3.358635687e-16
3.359386657e-16
3.359921454e-16
3.360267032e-16
3.360403715e-16
3.360410459e-16
3.360315282e-16
3.360158581e-16
3.359963711e-16
3.35976604e-16
3.359595414e-16
3.359475939e-16
3.359429371e-16
3.35946241e-16
3.359578759e-16
3.359776307e-16
3.360052322e-16
3.36039554e-16
3.36079531e-16
3.361239759e-16
3.361713905e-16
3.362206298e-16
3.362708564e-16
3.363211835e-16
3.363706858e-16
3.364185775e-16
3.364642809e-16
3.365073091e-16
3.36547557e-16
3.365847713e-16
3.366190143e-16
3.36650179e-16
3.366783614e-16
3.367037034e-16
3.367264524e-16
3.36746852e-16
3.367656492e-16
3.36788576e-16
3.368761924e-16
3.372193216e-16
3.37618805e-16
-9.950212786e-08
-3.639930401e-09
-2.509863027e-10
1.673816597e-11
1.901384087e-12
-1.9700812e-12
1.313829234e-12
2.301139043e-16
2.330973552e-16
2.333065234e-16
2.334526598e-16
2.335860428e-16
2.337085942e-16
2.338331762e-16
2.342849728e-16
2.322810039e-16
2.326967274e-16
2.343879138e-16
2.341392367e-16
2.341833533e-16
2.342367242e-16
2.3428473e-16
2.343288623e-16
2.343630134e-16
2.343890643e-16
2.344032471e-16
2.343973174e-16
2.343657639e-16
2.343217267e-16
2.342816537e-16
2.342481792e-16
2.342231852e-16
2.342078559e-16
2.342014838e-16
2.342043103e-16
2.342156912e-16
2.34234144e-16
2.342591489e-16
2.342892444e-16
2.343226103e-16
2.343582953e-16
2.343953577e-16
2.344326153e-16
2.344692265e-16
2.345046653e-16
2.345381336e-16
2.345693067e-16
2.345974522e-16
2.346224487e-16
2.346443756e-16
2.346631652e-16
2.346789607e-16
2.34691461e-16
2.347020716e-16
2.347123825e-16
2.347231635e-16
2.347395649e-16
2.347770825e-16
2.347589687e-16
2.346712175e-16
-2.826667146e-07
-2.330953541e-07
-1.582527961e-08
-1.036374194e-09
-1.310584404e-10
1.581087688e-12
3.269940946e-11
3.274720733e-11
1.946982955e-11
2.287433237e-16
2.289060452e-16
2.29053315e-16
2.291862487e-16
2.293343502e-16
2.298997915e-16
2.270502024e-16
2.279680128e-16
2.300369145e-16
2.298251659e-16
2.299021759e-16
2.299866819e-16
2.300688383e-16
2.301465363e-16
2.302174672e-16
2.302827483e-16
2.303390602e-16
2.303864764e-16
2.304235197e-16
2.304473686e-16
2.304568548e-16
2.304416237e-16
2.304123899e-16
2.303917742e-16
2.303798845e-16
2.303762514e-16
2.303809198e-16
2.303927108e-16
2.304105649e-16
2.304329057e-16
2.304587224e-16
2.304867386e-16
2.305157993e-16
2.30545127e-16
2.305735141e-16
2.306000643e-16
2.306247098e-16
2.30646491e-16
2.306657909e-16
2.306803034e-16
2.306909462e-16
2.307014895e-16
2.307119353e-16
2.307222533e-16
2.307324836e-16
2.307429448e-16
2.307558919e-16
2.307833936e-16
2.308590116e-16
2.30983217e-16
2.310569113e-16
-6.749927101e-06
-2.160003498e-06
-9.54916523e-08
7.388017379e-09
8.68058206e-10
3.4846438e-10
4.243132149e-10
3.775671594e-10
2.603100128e-10
1.452833537e-10
6.204204853e-11
2.280358734e-16
2.283669976e-16
2.286979145e-16
2.295525453e-16
2.259452815e-16
2.273660054e-16
2.297431324e-16
2.295208676e-16
2.29617908e-16
2.297195292e-16
2.298135919e-16
2.299019959e-16
2.299846608e-16
2.300621642e-16
2.301330909e-16
2.301984476e-16
2.302574465e-16
2.30310215e-16
2.303561823e-16
2.303935554e-16
2.304197115e-16
2.304353018e-16
2.304316811e-16
2.304196796e-16
2.304158708e-16
2.304190532e-16
2.304278152e-16
2.304411673e-16
2.304572968e-16
2.304755158e-16
2.304945633e-16
2.305130075e-16
2.305310228e-16
2.305457923e-16
2.305562758e-16
2.305660663e-16
2.305760872e-16
2.305863077e-16
2.305967217e-16
2.306072409e-16
2.306177809e-16
2.306282787e-16
2.306387923e-16
2.306501501e-16
2.306663657e-16
2.307026293e-16
2.307887097e-16
2.309119949e-16
2.309782559e-16
-1.645207039e-05
-8.664131178e-06
-5.2660465e-06
-3.238415108e-07
-3.000015188e-09
3.151972447e-09
3.074908335e-09
2.39852445e-09
1.596487962e-09
9.218399964e-10
4.580064511e-10
1.858916682e-10
5.562257349e-11
2.282294632e-16
2.293826151e-16
2.248675762e-16
2.26813879e-16
2.296205088e-16
2.293680082e-16
2.294902553e-16
2.296119243e-16
2.297216007e-16
2.298222342e-16
2.299145432e-16
2.299994992e-16
2.300769155e-16
2.301468849e-16
2.302094187e-16
2.302645453e-16
2.303124688e-16
2.303530064e-16
2.303867991e-16
2.304145644e-16
2.304369473e-16
2.304545636e-16
2.304683175e-16
2.304794295e-16
2.304886852e-16
2.30497412e-16
2.305058178e-16
2.305141854e-16
2.305225102e-16
2.305310807e-16
2.305398473e-16
2.305488437e-16
2.305582362e-16
2.305681458e-16
2.305784393e-16
2.305889468e-16
2.305996104e-16
2.306103857e-16
2.306211999e-16
2.306320254e-16
2.306431283e-16
2.306558964e-16
2.306758368e-16
2.307199926e-16
2.308106752e-16
2.309252742e-16
2.309793625e-16
-1.149124638e-05
-7.975031351e-06
-1.287196599e-05
-4.830450764e-06
-1.582151976e-07
2.376497764e-08
1.569330624e-08
9.851916872e-09
6.088409472e-09
3.434400592e-09
1.721785286e-09
7.52262426e-10
2.716739463e-10
6.835745747e-11
2.292812118e-16
2.236778826e-16
2.2614149e-16
2.294808103e-16
2.291772625e-16
2.293340609e-16
2.294855455e-16
2.296174564e-16
2.297345018e-16
2.298396416e-16
2.299346818e-16
2.300203155e-16
2.300970514e-16
2.301651852e-16
2.302249335e-16
2.30276668e-16
2.303208348e-16
2.303580268e-16
2.30388998e-16
2.304147347e-16
2.30436006e-16
2.304537196e-16
2.304687548e-16
2.304817054e-16
2.304932278e-16
2.305037268e-16
2.305135445e-16
2.305229803e-16
2.305323554e-16
2.305418917e-16
2.305516326e-16
2.305615665e-16
2.30571768e-16
2.3058234e-16
2.305932431e-16
2.306043024e-16
2.306153886e-16
2.306264942e-16
2.30637698e-16
2.306495225e-16
2.306640544e-16
2.306883142e-16
2.307392855e-16
2.308317459e-16
2.309382155e-16
2.309818733e-16
2.096390264e-05
-4.319667286e-06
-1.391981452e-05
-1.901539294e-05
-3.170430527e-06
2.880400106e-08
4.40141205e-08
2.616759367e-08
1.603998611e-08
9.143884436e-09
4.679009044e-09
2.114408959e-09
8.249391425e-10
2.581461669e-10
4.216972332e-11
2.225687873e-16
2.254762778e-16
2.293380136e-16
2.28962583e-16
2.291540464e-16
2.293413927e-16
2.295013374e-16
2.296393302e-16
2.297603762e-16
2.298677671e-16
2.299633595e-16
2.300482557e-16
2.301231727e-16
2.3018871e-16
2.302454852e-16
2.302941369e-16
2.303354269e-16
2.303701811e-16
2.303993255e-16
2.304237335e-16
2.304442651e-16
2.30461709e-16
2.304767421e-16
2.30489977e-16
2.305019084e-16
2.305129386e-16
2.30523411e-16
2.305336274e-16
2.305438302e-16
2.305541996e-16
2.305647866e-16
2.305755494e-16
2.305864544e-16
2.30597568e-16
2.306089093e-16
2.306203952e-16
2.306319072e-16
2.306436002e-16
2.306563107e-16
2.30672879e-16
2.307016448e-16
2.307580045e-16
2.308505505e-16
2.309498298e-16
2.309836384e-16
-5.155245192e-05
-1.057789818e-05
-1.141107548e-05
-2.604222843e-05
-1.900634818e-05
-3.311697453e-07
2.037598985e-07
7.864338833e-08
4.152938233e-08
2.298869785e-08
1.172990529e-08
5.329018606e-09
2.119655069e-09
7.180154227e-10
1.86826251e-10
2.216047257e-16
2.248933451e-16
2.292099332e-16
2.28749754e-16
2.289653245e-16
2.291864227e-16
2.293764976e-16
2.29538586e-16
2.296781452e-16
2.29799816e-16
2.299066631e-16
2.300006769e-16
2.300831297e-16
2.301550201e-16
2.302172292e-16
2.30270588e-16
2.303159923e-16
2.30354358e-16
2.303866445e-16
2.304137848e-16
2.304366676e-16
2.304561133e-16
2.304728488e-16
2.304875247e-16
2.305006805e-16
2.305127654e-16
2.305241463e-16
2.305351456e-16
2.305460036e-16
2.30556899e-16
2.305679544e-16
2.305792265e-16
2.3059066e-16
2.306021714e-16
2.306137306e-16
2.306253959e-16
2.306372634e-16
2.306496154e-16
2.306634827e-16
2.306824421e-16
2.307155158e-16
2.30775957e-16
2.308675287e-16
2.309605163e-16
2.309852861e-16
0.0007788185938
-2.184290254e-05
-1.284124832e-05
-3.174778161e-05
-4.738604548e-05
-7.423027943e-06
1.331416771e-06
3.170347048e-07
1.196684116e-07
5.887458179e-08
2.868584965e-08
1.266833691e-08
4.955860682e-09
1.688222119e-09
4.767399949e-10
8.63321177e-11
2.243610608e-16
2.291056045e-16
2.285528063e-16
2.287810995e-16
2.290293657e-16
2.292476368e-16
2.294345724e-16
2.295942548e-16
2.297316431e-16
2.298506931e-16
2.29954436e-16
2.300447916e-16
2.301232635e-16
2.301910077e-16
2.302490803e-16
2.302985181e-16
2.303403453e-16
2.303755913e-16
2.304052581e-16
2.304302864e-16
2.304515486e-16
2.304698197e-16
2.304857936e-16
2.305000511e-16
2.305130808e-16
2.305252739e-16
2.305369721e-16
2.305484365e-16
2.305598566e-16
2.305713475e-16
2.30582978e-16
2.305947843e-16
2.306067264e-16
2.306187277e-16
2.306307628e-16
2.306429956e-16
2.306559037e-16
2.306710358e-16
2.306926882e-16
2.307296607e-16
2.307931277e-16
2.308830508e-16
2.309704436e-16
2.309864618e-16
-0.000754890085
-3.534345287e-05
-8.832439304e-06
-3.658535126e-05
-7.266287795e-05
-4.175614405e-05
7.138186006e-06
1.373285547e-06
3.405018162e-07
1.426328773e-07
6.518485914e-08
2.767107236e-08
1.050697866e-08
3.514084861e-09
1.011513682e-09
2.264343336e-10
2.238089141e-16
2.290136888e-16
2.2835968e-16
2.285950967e-16
2.288671749e-16
2.291123316e-16
2.293251745e-16
2.295072985e-16
2.29662504e-16
2.297951988e-16
2.299093506e-16
2.300079435e-16
2.300930424e-16
2.301663301e-16
2.302290742e-16
2.302824834e-16
2.303276866e-16
2.303657835e-16
2.303978641e-16
2.304249152e-16
2.304478754e-16
2.304675715e-16
2.304847403e-16
2.30500005e-16
2.305138898e-16
2.305268137e-16
2.30539139e-16
2.305511441e-16
2.305630356e-16
2.305749451e-16
2.305869404e-16
2.305990496e-16
2.30611275e-16
2.306236129e-16
2.306360594e-16
2.306487976e-16
2.306624383e-16
2.306790109e-16
2.307034329e-16
2.307439814e-16
2.308096535e-16
2.308974743e-16
2.309798031e-16
2.309876959e-16
0.0002884934964
-0.002569827303
-2.443724138e-05
-3.328368489e-05
-9.079529001e-05
-0.0001158943728
1.500433935e-05
5.438666724e-06
9.555510954e-07
3.408443594e-07
1.415016365e-07
5.614894281e-08
2.018990418e-08
6.479929746e-09
1.834093707e-09
4.313828275e-10
4.094736869e-11
2.289287567e-16
2.281671795e-16
2.284048916e-16
2.28696946e-16
2.289666872e-16
2.292058449e-16
2.294123517e-16
2.295878309e-16
2.29736474e-16
2.298628252e-16
2.29970896e-16
2.30063478e-16
2.301428001e-16
2.302104696e-16
2.302679113e-16
2.303164059e-16
2.303572081e-16
2.303914817e-16
2.304204305e-16
2.304449952e-16
2.304660383e-16
2.304843161e-16
2.305005079e-16
2.305151716e-16
2.305287555e-16
2.305416425e-16
2.305541303e-16
2.305664416e-16
2.305787225e-16
2.305910559e-16
2.306034766e-16
2.306159844e-16
2.306285819e-16
2.306413546e-16
2.306546271e-16
2.306692539e-16
2.30687586e-16
2.307147158e-16
2.307584603e-16
2.308256885e-16
2.309112048e-16
2.30988922e-16
2.309891281e-16
-0.006667934862
-0.001242950702
-8.068430358e-05
-3.547243111e-05
-0.0001196828904
-0.000210886737
-2.133491835e-05
2.489623843e-05
4.031865145e-06
9.795678746e-07
3.242622757e-07
1.1278642e-07
3.697930441e-08
1.109516943e-08
3.014753328e-09
7.153975541e-10
1.131708896e-10
2.288542967e-16
2.279928301e-16
2.282251388e-16
2.285292389e-16
2.28817449e-16
2.290788097e-16
2.29308339e-16
2.295054087e-16
2.296723479e-16
2.298131277e-16
2.299321861e-16
2.30033143e-16
2.301189275e-16
2.301917487e-16
2.302533913e-16
2.303053983e-16
2.303491021e-16
2.303857711e-16
2.304166611e-16
2.30442787e-16
2.304651145e-16
2.30484451e-16
2.305015099e-16
2.3051689e-16
2.305310726e-16
2.305444634e-16
2.305573811e-16
2.30570065e-16
2.30582676e-16
2.305953094e-16
2.306080108e-16
2.306207946e-16
2.306336897e-16
2.306468524e-16
2.306606965e-16
2.30676361e-16
2.306965911e-16
2.307263899e-16
2.307729197e-16
2.308410915e-16
2.309241594e-16
2.30997689e-16
2.309905425e-16
0.0007862188887
9.606815717e-08
-1.138609981e-05
-3.535132039e-05
-0.0001731658459
-0.0003453553573
-0.0001478773726
8.313785969e-05
1.178955133e-05
2.727835574e-06
7.279361624e-07
2.115182097e-07
6.086249614e-08
1.667404617e-08
4.292956818e-09
1.013374799e-09
1.868874477e-10
2.287923451e-16
2.278606572e-16
2.280797909e-16
2.28384776e-16
2.28681062e-16
2.289564385e-16
2.292040291e-16
2.294203009e-16
2.296051113e-16
2.297610406e-16
2.298920949e-16
2.300023317e-16
2.300952595e-16
2.301736432e-16
2.302396816e-16
2.302951982e-16
2.303417487e-16
2.303807744e-16
2.304135551e-16
2.304412143e-16
2.304647679e-16
2.304850988e-16
2.305029652e-16
2.305190048e-16
2.305337315e-16
2.30547575e-16
2.305608751e-16
2.305738888e-16
2.305867922e-16
2.305996934e-16
2.306126501e-16
2.306256934e-16
2.306388962e-16
2.306525076e-16
2.306670418e-16
2.306838822e-16
2.307060257e-16
2.307384126e-16
2.307873471e-16
2.30855953e-16
2.309364605e-16
2.310061471e-16
2.309917576e-16
-0.0007905890154
-9.697923944e-05
0.002321469277
-5.857055133e-06
-0.0002577249348
-0.0005682787424
-0.0004048164017
0.0001575459809
4.492713712e-05
7.810494892e-06
1.579756517e-06
3.763844417e-07
9.349720927e-08
2.29571199e-08
5.528186193e-09
1.286629861e-09
2.557091085e-10
2.287481181e-16
2.277937183e-16
2.279939569e-16
2.282868622e-16
2.285778455e-16
2.288549999e-16
2.291106951e-16
2.29339345e-16
2.295382642e-16
2.297078679e-16
2.29850803e-16
2.299707133e-16
2.300712578e-16
2.301555859e-16
2.302262807e-16
2.302854731e-16
2.303349655e-16
2.303763443e-16
2.304109972e-16
2.304401566e-16
2.304649043e-16
2.304861885e-16
2.305048173e-16
2.305214697e-16
2.305366945e-16
2.305509459e-16
2.305645866e-16
2.305778918e-16
2.305910534e-16
2.306041937e-16
2.306173851e-16
2.306306795e-16
2.306442099e-16
2.306583335e-16
2.306736659e-16
2.306918376e-16
2.307159509e-16
2.307508314e-16
2.308018633e-16
2.308705977e-16
2.309485539e-16
2.310146201e-16
2.309932395e-16
-0.0005853033913
-0.0001570232833
-3.907314272e-05
-3.884462594e-05
-0.000437016023
-0.0009843063163
-0.0007638229908
0.0001911953114
0.0001333407842
2.458583231e-05
3.729934513e-06
6.585956863e-07
1.319519882e-07
2.82042415e-08
6.331894865e-09
1.465037071e-09
3.083831345e-10
6.554051031e-12
2.278006858e-16
2.279800092e-16
2.282499763e-16
2.285230551e-16
2.287891117e-16
2.290410386e-16
2.292724145e-16
2.294786392e-16
2.296578049e-16
2.298105776e-16
2.299393768e-16
2.300473741e-16
2.301377134e-16
2.302131782e-16
2.302761433e-16
2.303286243e-16
2.303723693e-16
2.30408895e-16