/*--------------------------------*- C++ -*----------------------------------*\
  =========                 |
  \\      /  F ield         | OpenFOAM: The Open Source CFD Toolbox
   \\    /   O peration     | Website:  https://openfoam.org
    \\  /    A nd           | Version:  10
     \\/     M anipulation  |
\*---------------------------------------------------------------------------*/
FoamFile
{
    format      ascii;
    class       volScalarField;
    location    "0.0250188088";
    object      ddt0(rho,HCO);
}
// * * * * * * * * * * * * * * * * * * * * * * * * * * * * * * * * * * * * * //

dimensions      [1 -3 -1 0 0 0 0];

internalField   nonuniform List<scalar> 
5170
(
-5.939841335e-41
-5.940304228e-41
-5.9406802e-41
-5.941889813e-41
3.202325004e-12
-5.988794017e-41
-5.989358112e-41
-5.99016928e-41
-5.991661391e-41
-5.995334378e-41
-5.98907164e-41
-5.989729491e-41
-5.990871559e-41
-5.992439623e-41
-5.996054893e-41
-5.98897339e-41
-5.989765724e-41
-5.991137414e-41
-5.992681689e-41
-5.996347179e-41
-5.988940365e-41
-5.989866762e-41
-5.991385695e-41
-5.992862781e-41
-5.996631578e-41
-5.988913307e-41
-5.989960472e-41
-5.991570433e-41
-5.99298429e-41
-5.996895629e-41
-5.988946535e-41
-5.990077785e-41
-5.991717559e-41
-5.993072938e-41
-5.997142761e-41
-5.98896383e-41
-5.990156212e-41
-5.991795284e-41
-5.993122889e-41
-5.997379083e-41
-5.989250738e-41
-5.990303482e-41
-5.991864227e-41
-5.995057457e-41
-6.848143722e-41
-1.584272328e-40
-8.765297739e-41
-6.580692854e-41
-1.459117357e-39
-6.203822495e-37
-4.561995559e-36
-1.494478149e-36
-3.97747097e-37
-1.028711696e-34
-4.526001601e-32
-2.189874125e-31
-8.459525923e-32
-2.799550529e-32
-7.397499051e-30
-3.308416645e-27
-1.09159564e-26
-5.029070546e-27
-2.047386087e-27
-5.095261015e-25
-2.425806542e-22
-5.647728948e-22
-3.130314093e-22
-1.564345146e-22
-3.256988914e-20
-1.78579936e-17
-3.034009651e-17
-2.038415799e-17
-1.260698309e-17
-1.810996664e-15
-1.320015967e-12
-1.690684183e-12
-1.382951828e-12
-1.079217831e-12
-7.425129492e-11
-1.225816138e-10
-1.881398107e-10
-1.846875609e-10
-1.769722123e-10
-1.498861843e-10
4.179749402e-11
2.231601041e-11
2.736212984e-11
2.938492242e-11
3.055141551e-11
2.176789415e-11
-7.60410501e-12
-3.240791527e-12
1.06392149e-12
5.464040347e-11
3.594201419e-10
-4.648252043e-12
1.033446003e-10
7.692014145e-10
-3.926786917e-10
-4.254360345e-10
-8.6826891e-10
-1.588071053e-10
-2.038806916e-10
6.332718272e-11
-2.704271441e-11
-2.190041439e-09
-1.222750732e-09
4.992027384e-11
-9.356672572e-10
4.813157489e-09
-8.174541936e-10
-4.384104107e-10
4.328634207e-10
4.036201288e-11
7.150475124e-10
-2.209406271e-10
-1.317747328e-10
-1.197682886e-10
1.529365051e-10
5.565691417e-11
3.806565352e-10
2.501135652e-10
7.318971998e-11
-2.806358045e-10
-2.289599846e-10
-3.140314426e-11
8.607138202e-11
1.846199741e-11
-9.136501338e-11
2.431692285e-10
2.678596949e-10
2.372862261e-10
2.825993018e-11
-8.988100996e-10
3.521229853e-08
3.096577798e-08
-1.045856825e-09
1.679096522e-12
5.597129013e-08
1.109737724e-08
-2.639915206e-08
3.419017685e-08
5.809451986e-08
-3.264764508e-08
-2.548973634e-08
-5.921861927e-09
-4.063521695e-08
-2.436327312e-08
3.64078137e-09
-1.363459832e-09
-2.980715215e-09
-1.106127409e-08
-7.140115968e-09
-2.700251077e-09
-5.599982956e-09
-1.715463629e-09
9.210656853e-09
-2.474067787e-08
-1.794995002e-09
-5.241402033e-09
-4.735263149e-09
-1.002871322e-09
2.082507131e-10
-8.296362996e-10
-9.277631549e-09
-7.02003152e-09
-1.868824468e-10
-1.087713148e-09
-5.662973103e-09
-1.111602424e-08
-1.109525246e-08
-6.240675271e-09
-4.601713562e-09
-9.656035493e-09
-1.381432036e-09
-5.921670038e-09
-9.923985336e-09
-8.797475798e-09
-1.317847097e-08
-6.272483785e-09
-8.818531822e-10
-1.286599608e-08
-1.273155034e-08
1.436908524e-09
9.196188775e-09
-5.707235167e-09
7.4266718e-10
4.532195047e-10
-6.287783744e-09
7.671952404e-08
6.56826107e-09
-5.052378626e-09
-4.294413927e-09
4.602096133e-09
-7.633354237e-08
-2.699711678e-06
-1.098297592e-07
-2.135181279e-08
5.085308975e-09
-1.337696299e-08
1.382130757e-09
4.269250878e-10
-3.009810158e-10
2.243848579e-08
-1.447130274e-06
-9.320500224e-11
-9.983874371e-10
-5.85141499e-10
3.047892461e-08
5.035852548e-07
2.352447064e-10
-6.18527506e-10
5.019082768e-08
7.635066878e-09
1.105513814e-07
-1.763138483e-10
-8.647572542e-10
1.006602054e-08
1.517666768e-09
2.2378738e-08
5.366829127e-11
-8.508626164e-10
-3.692736916e-09
-4.92193566e-09
-6.309178725e-08
9.500053596e-12
-8.294269863e-10
1.57103232e-10
4.360525205e-09
6.46760793e-08
-8.80819491e-10
-7.506998215e-10
5.504703019e-10
1.180265319e-08
1.67040324e-07
-6.73161416e-10
3.688424771e-08
1.951404659e-10
6.676286477e-11
5.904634579e-08
-2.051460665e-10
9.096566555e-09
2.563382352e-10
-4.987272672e-10
2.193869239e-08
-8.361624252e-10
1.778910503e-10
1.949328895e-10
-2.307753215e-09
-1.454121708e-08
-8.616745369e-10
-3.88337002e-10
-2.851553452e-09
-1.587826496e-08
1.687529197e-08
-4.129581293e-10
-8.957878599e-10
-3.463272372e-09
-1.937927467e-08
-1.168688686e-07
2.514689759e-11
-1.974023762e-10
2.020534312e-10
2.386373662e-09
-9.549072173e-09
1.412777392e-10
4.135619118e-10
2.522218444e-09
8.570872438e-09
2.737663215e-08
4.296656401e-10
2.409885727e-09
1.308668808e-08
5.697016705e-08
2.695752903e-07
6.221965025e-10
1.830750962e-09
8.442991969e-09
3.357538014e-08
8.326223135e-08
-8.307607219e-09
-3.37857737e-08
9.390581299e-09
-8.564509064e-08
-1.484576256e-06
-1.553539416e-08
-8.120976231e-08
-5.391697873e-07
-3.466770568e-07
-6.778958116e-07
4.457744361e-08
3.941330331e-07
-1.172615433e-07
1.17525345e-06
2.568993903e-06
1.762282644e-08
2.565441574e-08
1.074103137e-08
3.837527678e-07
2.285825943e-06
-9.612627149e-09
1.034217369e-08
1.125816928e-07
5.626708932e-07
2.23721424e-06
3.193778461e-08
6.924587261e-08
1.845287337e-07
4.852671418e-07
1.234992336e-06
1.447685266e-07
1.769897865e-07
2.595460208e-07
4.202023781e-07
7.142833327e-07
2.016105277e-07
2.059416671e-07
1.527918214e-07
2.68935026e-07
3.583959628e-07
8.794046755e-08
9.1816488e-08
1.148973778e-07
9.7347294e-08
1.287699919e-07
3.271269498e-08
2.794339968e-08
2.904011091e-08
3.894561689e-08
3.700580356e-08
1.055845622e-08
1.058341436e-08
1.053427429e-08
1.080045527e-08
1.063473429e-08
3.559918169e-09
3.554599995e-09
3.576877521e-09
3.440068887e-09
3.331676533e-09
1.260318043e-09
1.264023222e-09
1.307753583e-09
1.1210887e-09
9.392238294e-10
4.682736253e-10
4.598482158e-10
4.064569985e-10
3.748294133e-10
3.267360719e-10
4.576494734e-10
4.683993976e-10
4.634494808e-10
2.086073913e-10
1.162205357e-10
4.46577775e-11
4.657081601e-11
5.016264345e-11
4.939357052e-11
4.373072164e-11
8.662388283e-12
8.398809766e-12
1.501722935e-11
1.455937743e-11
1.331204042e-11
3.425109216e-12
3.325451393e-12
3.111068038e-12
2.765600002e-12
2.451489851e-12
-8.141248576e-13
-6.908045147e-13
-8.065086864e-13
-1.147263259e-12
-1.129426603e-12
-3.171949958e-12
-3.254196406e-12
-3.400503714e-12
-3.658981362e-12
-3.903815646e-12
-1.825286764e-12
-1.888803001e-12
-2.02184722e-12
-2.249067972e-12
-2.526004848e-12
-2.068809407e-13
-2.778946265e-13
1.990900475e-14
-1.628171427e-13
-4.311787631e-13
1.657937746e-12
1.649625772e-12
1.637477771e-12
1.645264852e-12
1.184237748e-12
2.331089861e-12
2.302508477e-12
1.733722535e-12
1.949764162e-12
1.99833408e-12
9.263256141e-13
9.804547187e-13
1.089550404e-12
1.150778163e-12
7.555430965e-13
-5.852949478e-12
-5.847756719e-12
-5.980901272e-12
-6.064117183e-12
2.825216633e-12
2.815112358e-12
-8.301915672e-13
-5.360200354e-13
2.836784892e-13
3.295929585e-13
-1.048617326e-12
-9.584699612e-13
-8.664435679e-13
-8.585464069e-13
-9.90155393e-13
-2.633010402e-12
-2.700905709e-12
-1.87510957e-12
-1.428187917e-12
1.903937991e-12
1.291866756e-12
1.200536956e-12
1.142599718e-12
9.172869799e-13
4.413068058e-13
4.02258737e-12
2.663432132e-12
5.216479503e-12
3.131993464e-12
3.35885852e-12
-8.084693686e-13
-8.251063373e-13
-8.672655789e-13
-7.912377582e-13
-3.88237455e-13
-2.920401144e-13
-3.129423981e-13
-3.363203981e-13
-3.214202975e-13
-2.186678118e-13
-1.764578374e-13
-1.87791563e-13
-2.364924631e-13
-1.438955818e-13
7.923380939e-14
-6.684838671e-12
-6.755631202e-12
4.546222022e-12
4.941374743e-12
6.889141188e-12
-7.141036693e-12
-7.185753414e-12
-7.281090102e-12
-7.191470297e-12
-6.688026994e-12
-7.519105024e-12
-7.578328368e-12
-7.587040964e-12
-7.451726037e-12
-6.932118631e-12
-7.472007865e-12
-7.57307355e-12
-7.66969301e-12
-7.64743285e-12
-7.185664757e-12
-9.013848526e-13
-8.943436161e-13
-8.637789303e-13
-8.344666507e-13
-7.975317706e-13
-8.863823223e-13
-8.547116671e-13
-1.014800761e-12
-9.320170887e-13
-1.083226837e-12
-8.121480112e-12
-8.138215946e-12
-8.09892696e-12
-7.971095483e-12
-7.523701316e-12
-8.540701392e-12
-8.560706451e-12
-8.52065081e-12
-8.388059257e-12
-7.927098737e-12
-9.466238121e-12
-9.487172916e-12
-9.449317322e-12
-9.320395258e-12
-8.862317763e-12
-6.927196957e-12
-6.914831583e-12
-6.827283429e-12
-6.604711149e-12
-6.177438982e-12
-4.390854425e-12
-4.261723027e-12
-4.244271916e-12
-4.02673789e-12
-3.837096648e-12
-3.841144487e-12
-3.807941797e-12
-3.742660754e-12
-3.651836166e-12
-3.58158407e-12
-1.418458217e-12
-1.72357314e-12
-2.889773968e-12
-5.714287807e-12
-6.45487902e-12
3.366172464e-12
3.367932514e-12
3.37764189e-12
3.405870245e-12
3.41991813e-12
4.953187679e-13
5.611170243e-13
7.240272574e-13
1.048006494e-12
1.531752386e-12
-3.55458176e-12
-3.447359593e-12
-3.212165242e-12
-2.833685444e-12
-2.352789147e-12
4.924696516e-12
5.20687464e-12
5.904383062e-12
6.505977914e-12
6.297067466e-12
-1.414438767e-11
-1.387909314e-11
-1.352184037e-11
-1.339335943e-11
-1.391634639e-11
-1.925640149e-11
-1.88298688e-11
-1.837037918e-11
-1.839678394e-11
-2.05706197e-11
-1.773035469e-11
-1.733594718e-11
-1.70344532e-11
-1.733970395e-11
-1.980230658e-11
-2.453272778e-05
-1.524607054e-06
-9.501946491e-08
-1.052482669e-07
7.874974816e-08
-3.444082278e-08
1.140005117e-06
3.318014924e-07
2.09609653e-07
1.334322142e-08
4.687104063e-07
-3.497879516e-07
-1.94569761e-07
1.08264966e-07
-3.615730625e-07
9.611073656e-08
-3.966933067e-07
-3.580839617e-06
-1.561388315e-06
7.261475573e-06
6.034480896e-06
2.481989366e-06
1.070690334e-06
4.467447635e-07
1.601288812e-07
3.695897721e-08
1.077513957e-08
3.305747653e-09
6.569533208e-10
2.853536243e-10
1.157847435e-10
4.002334148e-11
1.324666718e-11
2.202917219e-12
-1.420361007e-12
-3.953348402e-12
-2.595936159e-12
-7.003194601e-13
1.190840073e-12
2.676749839e-12
-1.533829455e-12
2.500176558e-12
-1.735123991e-14
-1.113389982e-12
1.323819076e-12
-4.018183908e-12
4.505230818e-12
-1.07168599e-12
-3.1399338e-13
-3.518788135e-13
-1.13970679e-11
-6.120725059e-12
-6.423154545e-12
-6.478321114e-12
-7.648504654e-13
-2.144262009e-12
-6.709579785e-12
-7.089843214e-12
-8.018648983e-12
-5.447805688e-12
-4.145826175e-12
-3.895487316e-12
3.754733424e-12
2.584955913e-12
9.181207821e-13
-3.020410269e-12
3.65419376e-12
-1.396794796e-11
-2.196303572e-11
-2.109774641e-11
-1.905236188e-06
5.313086389e-08
-7.397612772e-09
-8.375593156e-09
-1.266114413e-09
-6.521124829e-07
2.899232604e-06
-8.038682261e-07
2.273911244e-09
1.990705095e-09
-2.42412416e-08
-8.199416123e-07
3.397231077e-07
1.084430376e-07
2.334641358e-08
1.22805092e-07
-1.259998037e-05
-2.627588856e-05
-6.429294994e-07
-2.636793563e-07
-5.595338004e-07
-4.552401781e-06
-0.0001379353222
-1.18841227e-05
-2.042492119e-07
2.864170339e-06
3.270773363e-05
-0.000222963388
2.039108501e-05
1.698821317e-06
1.038033297e-06
-1.805610491e-05
-8.90562906e-05
-1.787632037e-05
5.621381063e-07
1.6352175e-06
1.75918638e-05
0.0002695199747
-1.273675894e-05
-2.286991609e-06
7.101649542e-07
1.126175409e-06
-3.273184214e-05
-0.0007880003457
-4.140181441e-05
2.435403943e-07
4.052620591e-06
6.316679681e-06
2.119269774e-05
2.476308429e-05
-7.42723894e-07
1.649697546e-07
-2.741394304e-05
0.0004815316255
5.413240893e-06
2.552708312e-07
-8.538935244e-07
2.217396087e-05
0.0003401855357
-0.00042646039
6.631876696e-08
-3.47422053e-05
-4.293740361e-06
8.808330657e-06
-1.064563467e-05
6.892066367e-07
1.048836351e-05
1.053371556e-06
-3.977546195e-07
-7.911140814e-06
1.466879568e-07
1.251966035e-05
3.551762727e-07
-3.98799228e-07
0.0001044818826
-3.484606179e-07
1.173422229e-05
-6.037391316e-07
-2.332661109e-06
-0.0003222968317
3.073299513e-07
-1.692001676e-06
-7.386901526e-06
-5.179031999e-05
-7.840446215e-05
-1.784338032e-06
-5.349012008e-06
-2.115589855e-05
-6.641830788e-05
-0.0001351598961
-3.870490941e-06
-1.467596153e-05
-4.922925105e-05
-0.0001043193025
0.0002384290288
1.912919133e-05
7.299661903e-05
1.254194735e-05
-0.002845548335
-0.03283905979
1.561546009e-05
6.695440704e-05
0.0002197794963
0.0004258286862
-0.0009523713679
5.280984114e-06
1.764877849e-05
5.099670406e-05
0.0001125547823
8.33092495e-05
1.752827216e-06
3.975155803e-06
8.515037964e-06
1.572982844e-05
1.729188912e-05
6.012566391e-07
9.399046502e-07
1.391213695e-06
1.898484474e-06
1.975596184e-06
1.674606989e-07
2.137434324e-07
2.427966405e-07
2.574939871e-07
2.31490536e-07
4.189953414e-08
4.426092933e-08
4.373030867e-08
3.955728065e-08
3.149815204e-08
1.121573077e-08
1.019783211e-08
1.085555912e-08
8.340849894e-09
6.603046589e-09
3.478370649e-09
3.062558832e-09
3.12293201e-09
1.964097095e-09
6.880964767e-10
5.305374379e-10
7.425337201e-10
5.313100308e-10
7.328127902e-10
3.038708587e-10
2.383095388e-10
8.389327466e-10
-7.200171999e-11
1.999875806e-10
9.958873601e-11
1.09119133e-10
1.075375216e-10
5.981611852e-11
7.71984045e-11
5.915504879e-11
3.919265204e-11
3.866852636e-11
-7.185937055e-12
1.577042103e-11
3.225135716e-11
1.140541124e-11
1.125083572e-11
9.293176447e-12
1.707132552e-12
2.179796259e-12
2.92173707e-12
-1.668416339e-12
3.790300838e-13
-8.397215807e-13
-1.243585705e-12
-1.688009785e-12
-2.582108362e-12
-3.475633159e-12
-6.38547414e-12
-1.062344385e-11
-3.495504002e-12
-2.938194062e-12
-1.058074085e-11
-7.75531356e-12
-7.810346935e-12
-2.80162159e-12
-1.452739224e-12
-2.362891357e-12
-5.818863249e-12
-4.55366131e-12
-1.028023291e-12
-1.424341785e-12
-3.530461161e-12
-9.483640862e-12
-1.758619033e-12
8.158672569e-13
-2.05387325e-13
-4.77082288e-13
-6.333112996e-12
2.7736886e-12
1.23875585e-12
1.294753573e-12
-4.1401753e-12
4.116977863e-12
4.126834169e-12
-3.726671737e-12
-4.011975429e-12
5.670822315e-12
2.615098086e-12
2.6182797e-12
3.532103327e-12
6.475670906e-13
9.760753898e-13
9.75201363e-13
-3.19105707e-13
-9.417505909e-13
-2.360899237e-13
-1.271966057e-13
-1.293390566e-12
3.540963415e-12
-2.245994146e-12
-1.980747625e-12
2.673276818e-13
2.785463836e-12
6.584797822e-13
1.730400491e-12
2.006082009e-13
7.872873457e-13
-2.051137088e-12
-1.695536402e-12
6.636547754e-12
3.668321222e-12
2.013209221e-12
1.113039788e-11
-3.832910179e-12
-3.223200861e-12
-7.800622415e-12
-2.772499803e-12
-1.519403624e-12
-6.952295432e-13
-8.354316665e-13
-1.034689308e-12
-7.362108739e-13
-3.978853865e-13
8.795029473e-14
-3.147754214e-13
-2.625259602e-13
4.085581712e-13
6.522507861e-12
3.780258618e-12
-1.208031063e-12
-8.691954557e-13
-6.670211783e-12
-1.099212552e-11
5.512238142e-12
-4.701948253e-12
2.439728268e-12
-4.874973226e-12
-8.667010848e-12
-8.728667895e-12
-7.742998041e-12
-8.392700542e-12
-8.440322314e-12
-8.460497745e-12
-8.445389097e-12
-8.031222343e-12
-8.512714479e-12
-8.448883847e-12
-7.376351605e-12
-1.018793293e-12
-7.240014565e-12
-1.26618786e-12
-3.469857867e-13
-2.602593725e-13
-4.136594479e-13
-5.387000999e-13
-3.801068969e-13
-7.39151554e-13
-6.505304387e-12
-7.707575596e-12
-6.67534479e-12
-8.119024062e-12
-7.798181114e-12
-7.707732493e-12
-7.664905259e-12
-8.069862912e-12
-8.108344052e-12
-7.924672857e-12
-7.759693567e-12
-7.690150061e-12
-8.415174954e-12
-8.430497566e-12
-8.222485398e-12
-7.997535425e-12
-7.563086616e-12
-9.317594445e-12
-9.221393386e-12
-8.512876405e-12
-4.5361008e-12
-3.771204597e-12
-5.746445985e-12
-5.531288479e-12
-2.24567935e-12
-2.036362506e-12
-1.795346325e-12
-3.531239263e-12
-2.854652656e-12
-2.525776987e-12
-2.125181345e-12
-1.344104018e-12
-3.498521384e-12
-2.937096139e-12
-1.141536444e-12
-1.448343044e-12
-2.04161156e-11
2.093242511e-11
-2.574259749e-11
3.31491387e-12
4.784324448e-12
5.053166811e-12
3.129121906e-12
3.370106273e-12
4.123545793e-12
4.788107838e-12
5.454151738e-12
1.65057481e-12
1.990256283e-12
2.656610337e-12
3.39274137e-12
4.267332073e-12
-2.364732577e-12
-2.026941061e-12
1.184803241e-13
1.223350217e-11
1.499840461e-11
7.575100963e-12
8.317495596e-12
-1.131714319e-11
-7.218602366e-12
-2.917046233e-12
-1.057278953e-11
-1.436281699e-11
-1.226414401e-11
-1.076388708e-11
-9.127660035e-12
-1.561036923e-11
-1.248236223e-11
-9.446573607e-12
-7.484562503e-12
-7.457382407e-12
-1.541100555e-11
-3.265769837e-11
-2.389528573e-11
-2.195706919e-11
-2.130752097e-11
-1.730599691e-11
-2.595827652e-11
-5.517866232e-12
-1.129194144e-11
-1.358346611e-11
-1.203521859e-11
-1.182522423e-11
-1.182276403e-11
-1.183947941e-11
-1.185498291e-11
-1.186677135e-11
-1.187607599e-11
-1.188356077e-11
-1.188344184e-11
-1.185847467e-11
-1.197972645e-11
-1.196685682e-11
-1.186989518e-11
-1.190206036e-11
-1.190786375e-11
-1.190792053e-11
-1.19071042e-11
-1.190580979e-11
-1.190445314e-11
-1.190311325e-11
-1.190190153e-11
-1.190102943e-11
-1.190050496e-11
-1.190044781e-11
-1.190087742e-11
-1.190172843e-11
-1.190302327e-11
-1.190469576e-11
-1.190655731e-11
-1.190853627e-11
-1.19105609e-11
-1.191248681e-11
-1.191421619e-11
-1.191570358e-11
-1.191689828e-11
-1.191776173e-11
-1.191828389e-11
-1.191850879e-11
-1.191842032e-11
-1.191802685e-11
-1.191737335e-11
-1.191650297e-11
-1.191549722e-11
-1.191441493e-11
-1.191328473e-11
-1.191213243e-11
-1.19109929e-11
-1.190989934e-11
-1.190884105e-11
-1.190777102e-11
-1.190655903e-11
-1.190454989e-11
-1.189561125e-11
-1.185382587e-11
-1.18042419e-11
-3.072484258e-11
-1.75505575e-10
5.573877425e-13
-1.120462728e-11
-7.248677281e-12
-9.140158015e-12
-9.470128235e-12
-9.489101624e-12
-9.49099838e-12
-9.492500567e-12
-9.494268779e-12
-9.496179703e-12
-9.497832265e-12
-9.502021492e-12
-9.526397857e-12
-9.373535572e-12
-9.3569996e-12
-9.518366006e-12
-9.498273117e-12
-9.495662804e-12
-9.496315172e-12
-9.49812038e-12
-9.500701174e-12
-9.504004768e-12
-9.506984841e-12
-9.509974355e-12
-9.512345541e-12
-9.513990298e-12
-9.51517234e-12
-9.515617524e-12
-9.515707626e-12
-9.515413416e-12
-9.514777874e-12
-9.513961503e-12
-9.513378567e-12
-9.512902721e-12
-9.512429717e-12
-9.512133443e-12
-9.512028334e-12
-9.512124527e-12
-9.51244439e-12
-9.512997001e-12
-9.513690059e-12
-9.514471249e-12
-9.515193575e-12
-9.515935167e-12
-9.51657031e-12
-9.517190201e-12
-9.517827626e-12
-9.518574116e-12
-9.519445551e-12
-9.520442862e-12
-9.521615537e-12
-9.522890876e-12
-9.524231544e-12
-9.525649248e-12
-9.52732975e-12
-9.528120156e-12
-9.51237889e-12
-9.494184166e-12
5.794368956e-10
8.500146844e-10
1.264695463e-11
1.866020468e-11
-9.131969539e-12
-8.580748456e-12
-8.675039101e-12
-8.686587905e-12
-8.698793421e-12
-8.713535978e-12
-8.728791538e-12
-8.743580508e-12
-8.757365411e-12
-8.773792776e-12
-8.813382834e-12
-8.670624111e-12
-8.670612723e-12
-8.81750222e-12
-8.801272929e-12
-8.801950941e-12
-8.804420264e-12
-8.806790567e-12
-8.809144651e-12
-8.811700343e-12
-8.814432158e-12
-8.816895426e-12
-8.818556674e-12
-8.819408858e-12
-8.819385892e-12
-8.81852813e-12
-8.817056753e-12
-8.814895322e-12
-8.812383301e-12
-8.809769599e-12
-8.807192759e-12
-8.804796227e-12
-8.802726136e-12
-8.801035367e-12
-8.799692591e-12
-8.798740067e-12
-8.798202775e-12
-8.798159439e-12
-8.798521454e-12
-8.799115995e-12
-8.799845207e-12
-8.800602489e-12
-8.801226943e-12
-8.80173739e-12
-8.802149832e-12
-8.802519892e-12
-8.802960979e-12
-8.803459548e-12
-8.80402967e-12
-8.804637868e-12
-8.80530711e-12
-8.806241116e-12
-8.808231758e-12
-8.813397967e-12
-8.820327985e-12
-8.831079146e-12
-1.314946529e-08
-3.20429242e-10
-5.461828994e-11
2.184380525e-12
-9.320154274e-12
-8.437852018e-12
-8.55259539e-12
-8.569615137e-12
-8.586227037e-12
-8.608361351e-12
-8.632956699e-12
-8.657880938e-12
-8.681798579e-12
-8.710221029e-12
-8.764159455e-12
-8.587053693e-12
-8.610477261e-12
-8.772503095e-12
-8.75594646e-12
-8.757644505e-12
-8.761126584e-12
-8.764078321e-12
-8.766539274e-12
-8.768647603e-12
-8.770561817e-12
-8.772348137e-12
-8.774027129e-12
-8.775560155e-12
-8.776934818e-12
-8.778222342e-12
-8.77939039e-12
-8.780240841e-12
-8.780653409e-12
-8.780584423e-12
-8.780152872e-12
-8.779396891e-12
-8.778306552e-12
-8.777053933e-12
-8.775839333e-12
-8.774717743e-12
-8.773777292e-12
-8.773061341e-12
-8.772579569e-12
-8.772361776e-12
-8.772349526e-12
-8.772418348e-12
-8.772478846e-12
-8.77243804e-12
-8.772222965e-12
-8.771811764e-12
-8.771349231e-12
-8.770908743e-12
-8.770526933e-12
-8.770213037e-12
-8.770070464e-12
-8.770424644e-12
-8.772354731e-12
-8.778143907e-12
-8.786545628e-12
-8.798465195e-12
-2.111492945e-08
-1.3928103e-09
1.917607194e-10
-5.580532958e-11
-1.498593846e-11
-8.374380919e-12
-8.518633528e-12
-8.563466278e-12
-8.574106318e-12
-8.588487588e-12
-8.607013105e-12
-8.628152684e-12
-8.651754474e-12
-8.68696678e-12
-8.752938721e-12
-8.530028464e-12
-8.575091393e-12
-8.763759519e-12
-8.74593457e-12
-8.748394335e-12
-8.752919773e-12
-8.75668942e-12
-8.759802001e-12
-8.762418126e-12
-8.76467885e-12
-8.766671037e-12
-8.768462483e-12
-8.770069047e-12
-8.771516468e-12
-8.77283445e-12
-8.773999855e-12
-8.774983606e-12
-8.775747495e-12
-8.776294042e-12
-8.776676969e-12
-8.776958393e-12
-8.777184164e-12
-8.777395292e-12
-8.777632956e-12
-8.777867209e-12
-8.778091366e-12
-8.778322858e-12
-8.778538464e-12
-8.778730738e-12
-8.77889773e-12
-8.778908788e-12
-8.778715263e-12
-8.778386521e-12
-8.777883794e-12
-8.777140961e-12
-8.776260641e-12
-8.77523883e-12
-8.7741633e-12
-8.773167926e-12
-8.772394667e-12
-8.772256746e-12
-8.774046025e-12
-8.779474011e-12
-8.786491556e-12
-8.796872972e-12
4.779605106e-08
-5.835949249e-09
-5.85196274e-10
-2.725219582e-10
2.062373083e-13
3.509478395e-12
-8.400380753e-12
-8.555125968e-12
-8.566811617e-12
-8.576593646e-12
-8.591336974e-12
-8.609106233e-12
-8.630831634e-12
-8.670814226e-12
-8.743770864e-12
-8.465367997e-12
-8.532036456e-12
-8.754360639e-12
-8.735269237e-12
-8.739087484e-12
-8.745394351e-12
-8.750493542e-12
-8.754595106e-12
-8.757980623e-12
-8.760841254e-12
-8.763297798e-12
-8.765431324e-12
-8.767288723e-12
-8.768911277e-12
-8.770328685e-12
-8.771551415e-12
-8.772598883e-12
-8.77348819e-12
-8.774246476e-12
-8.774900961e-12
-8.775488755e-12
-8.776037297e-12
-8.776565724e-12
-8.77709696e-12
-8.777624306e-12
-8.778148522e-12
-8.778671699e-12
-8.779185947e-12
-8.779687638e-12
-8.780145118e-12
-8.780458781e-12
-8.780629556e-12
-8.780700002e-12
-8.780620504e-12
-8.780293884e-12
-8.77970907e-12
-8.778810823e-12
-8.777680204e-12
-8.776470467e-12
-8.775420219e-12
-8.775119776e-12
-8.776911025e-12
-8.781900328e-12
-8.787746278e-12
-8.796873728e-12
2.196659561e-08
-5.099946163e-08
-4.61362795e-09
-1.57885106e-10
-1.37268252e-10
-2.261923285e-12
-2.293625279e-12
-8.505866439e-12
-8.553822098e-12
-8.5633537e-12
-8.576379519e-12
-8.592984098e-12
-8.614627362e-12
-8.660337652e-12
-8.737228532e-12
-8.40319126e-12
-8.488208446e-12
-8.742888487e-12
-8.722115591e-12
-8.727206407e-12
-8.735798658e-12
-8.742726506e-12
-8.748172847e-12
-8.752555605e-12
-8.756178001e-12
-8.759234006e-12
-8.761846705e-12
-8.764095417e-12
-8.766039836e-12
-8.767723234e-12
-8.769178369e-12
-8.770436424e-12
-8.771527779e-12
-8.772485527e-12
-8.773337293e-12
-8.774114327e-12
-8.774840125e-12
-8.775533461e-12
-8.776212444e-12
-8.776882762e-12
-8.777548907e-12
-8.77820871e-12
-8.778856589e-12
-8.779484241e-12
-8.780075287e-12
-8.780582751e-12
-8.7809826e-12
-8.781252165e-12
-8.781365302e-12
-8.781276178e-12
-8.780933644e-12
-8.780271995e-12
-8.779331926e-12
-8.778224358e-12
-8.777256879e-12
-8.77716806e-12
-8.779194101e-12
-8.783839346e-12
-8.788844788e-12
-8.79679686e-12
-1.910297206e-07
-2.365801325e-07
-3.255284146e-08
-2.121067798e-09
-3.473084277e-10
-6.841788779e-11
-2.391097484e-12
-8.373993156e-12
-8.533243168e-12
-8.552786798e-12
-8.563816516e-12
-8.579304307e-12
-8.601555068e-12
-8.653424041e-12
-8.732177911e-12
-8.349818707e-12
-8.449584638e-12
-8.731115477e-12
-8.708217522e-12
-8.713810726e-12
-8.724586232e-12
-8.733560148e-12
-8.740634668e-12
-8.746248625e-12
-8.750802604e-12
-8.754581503e-12
-8.75777439e-12
-8.760502338e-12
-8.762850978e-12
-8.764881446e-12
-8.766641866e-12
-8.768172538e-12
-8.769511065e-12
-8.770694187e-12
-8.771754163e-12
-8.772722036e-12
-8.77362286e-12
-8.774476478e-12
-8.775300194e-12
-8.776102952e-12
-8.776891322e-12
-8.777663888e-12
-8.77841619e-12
-8.779136092e-12
-8.779808823e-12
-8.780408061e-12
-8.780913225e-12
-8.78128675e-12
-8.781489962e-12
-8.781492195e-12
-8.781262002e-12
-8.780792931e-12
-8.780101764e-12
-8.779252976e-12
-8.778565469e-12
-8.778775276e-12
-8.780932948e-12
-8.785325361e-12
-8.789824385e-12
-8.796733576e-12
1.304479991e-06
-2.108973975e-07
-1.069219081e-07
-1.131621709e-08
-6.716370775e-10
-5.241362543e-11
2.700372825e-11
-8.926674143e-12
-8.478922678e-12
-8.542684654e-12
-8.552274029e-12
-8.56522524e-12
-8.587931341e-12
-8.646167543e-12
-8.72538066e-12
-8.299787675e-12
-8.413590499e-12
-8.719322116e-12
-8.69428855e-12
-8.6996126e-12
-8.712138662e-12
-8.723098282e-12
-8.731951438e-12
-8.739008511e-12
-8.744681739e-12
-8.749330566e-12
-8.753216207e-12
-8.756513318e-12
-8.759341371e-12
-8.761783423e-12
-8.76390304e-12
-8.765750814e-12
-8.767372132e-12
-8.768808866e-12
-8.770099052e-12
-8.771275139e-12
-8.772364774e-12
-8.773389462e-12
-8.774367328e-12
-8.775309283e-12
-8.776224154e-12
-8.777111833e-12
-8.777968318e-12
-8.778782132e-12
-8.779539615e-12
-8.780216597e-12
-8.780791848e-12
-8.781234726e-12
-8.781509116e-12
-8.781584776e-12
-8.781429204e-12
-8.78104128e-12
-8.780440801e-12
-8.779752871e-12
-8.779335366e-12
-8.779894458e-12
-8.782316583e-12
-8.786650866e-12
-8.790814007e-12
-8.797029712e-12
1.683526285e-06
-1.817284233e-07
-3.729668292e-07
-4.640563172e-08
-3.089576209e-09
-8.652272534e-12
-7.152935275e-11
3.667138786e-12
-8.391603682e-12
-8.516442525e-12
-8.537437737e-12
-8.548667803e-12
-8.572095955e-12
-8.637097571e-12
-8.715133858e-12
-8.248198363e-12
-8.376073077e-12
-8.707035016e-12
-8.680189773e-12
-8.684792481e-12
-8.698760682e-12
-8.711598789e-12
-8.72231755e-12
-8.731006061e-12
-8.737991108e-12
-8.743659591e-12
-8.748341348e-12
-8.752276255e-12
-8.75563074e-12
-8.758520748e-12
-8.761027799e-12
-8.76321702e-12
-8.765140516e-12
-8.766849092e-12
-8.768384058e-12
-8.7697795e-12
-8.771065668e-12
-8.772265901e-12
-8.773403824e-12
-8.774491393e-12
-8.775539059e-12
-8.776546651e-12
-8.777511527e-12
-8.778425676e-12
-8.779276336e-12
-8.780039409e-12
-8.780689602e-12
-8.781196845e-12
-8.781532495e-12
-8.781675511e-12
-8.781601772e-12
-8.781300738e-12
-8.780806019e-12
-8.780284098e-12
-8.780135691e-12
-8.781035575e-12
-8.783700206e-12
-8.787950567e-12
-8.791821481e-12
-8.79734234e-12
7.560194262e-07
1.336905482e-05
-7.631141546e-07
-1.666035063e-07
-1.306784919e-08
1.00333296e-10
4.948841061e-10
6.245534673e-11
1.638298478e-14
-8.437504669e-12
-8.524146802e-12
-8.534626587e-12
-8.557049371e-12
-8.627893539e-12
-8.702520324e-12
-8.195418675e-12
-8.337032108e-12
-8.693721353e-12
-8.665552018e-12
-8.66911422e-12
-8.684308245e-12
-8.698916927e-12
-8.711550685e-12
-8.722046864e-12
-8.730573423e-12
-8.737467308e-12
-8.743098732e-12
-8.747778976e-12
-8.751734102e-12
-8.75512539e-12
-8.758059345e-12
-8.76061825e-12
-8.762863567e-12
-8.764854718e-12
-8.766632592e-12
-8.768244682e-12
-8.769729677e-12
-8.77111357e-12
-8.772418553e-12
-8.773657877e-12
-8.774841242e-12
-8.775974565e-12
-8.777055865e-12
-8.77807381e-12
-8.779014828e-12
-8.779862512e-12
-8.780596178e-12
-8.781187997e-12
-8.781602005e-12
-8.78181604e-12
-8.781819242e-12
-8.781607045e-12
-8.781243153e-12
-8.780919806e-12
-8.781048266e-12
-8.782262524e-12
-8.785116e-12
-8.78924204e-12
-8.792826268e-12
-8.797212661e-12
1.510628411e-05
2.550820584e-06
-9.006937555e-07
-5.995802207e-07
-4.362339704e-08
9.110088921e-10
3.016463256e-10
-4.922055441e-11
1.756591505e-11
-8.466601358e-12
-8.443739858e-12
-8.518999633e-12
-8.546381095e-12
-8.621169754e-12
-8.690762878e-12
-8.148570501e-12
-8.301892209e-12
-8.680442876e-12
-8.651452473e-12
-8.653660123e-12
-8.669654893e-12
-8.685682243e-12
-8.700026866e-12
-8.712299156e-12
-8.722468841e-12
-8.730751084e-12
-8.737486387e-12
-8.743028048e-12
-8.747660754e-12
-8.751597647e-12
-8.754986139e-12
-8.75793276e-12
-8.760518984e-12
-8.762809569e-12
-8.7648571e-12
-8.766711246e-12
-8.768408093e-12
-8.769979763e-12
-8.771450928e-12
-8.772844207e-12
-8.774166143e-12
-8.775424232e-12
-8.776614192e-12
-8.777732685e-12
-8.778771668e-12
-8.779711516e-12
-8.780530012e-12
-8.781202831e-12
-8.781695214e-12
-8.7819932e-12
-8.782086398e-12
-8.781979093e-12
-8.781761419e-12
-8.781654197e-12
-8.782056153e-12
-8.783549315e-12
-8.786547725e-12
-8.79054869e-12
-8.793889255e-12
-8.797587992e-12
-1.418500097e-06
-6.02671746e-08
-6.997791736e-07
-1.987339595e-06
-8.289950878e-08
9.210092362e-09
1.529927671e-09
7.011090804e-10
6.76747837e-11
-7.436015904e-12
-8.376402095e-12
-8.508634031e-12
-8.543909343e-12
-8.618919382e-12
-8.683113817e-12
-8.114781305e-12
-8.277315479e-12
-8.668944083e-12
-8.639519918e-12
-8.640212529e-12
-8.656326491e-12
-8.67309783e-12
-8.688600273e-12
-8.702298684e-12
-8.713969716e-12
-8.723654083e-12
-8.731580381e-12
-8.738077484e-12
-8.743464692e-12
-8.747998424e-12
-8.751871341e-12
-8.75522119e-12
-8.75815139e-12
-8.760738967e-12
-8.763050552e-12
-8.765139136e-12
-8.767049532e-12
-8.768815656e-12
-8.770461731e-12
-8.772011936e-12
-8.773473943e-12
-8.774860564e-12
-8.776169712e-12
-8.777401214e-12
-8.778542919e-12
-8.779576826e-12
-8.780484593e-12
-8.781243226e-12
-8.781822242e-12
-8.782211574e-12
-8.782400022e-12
-8.782411242e-12
-8.782352175e-12
-8.78246527e-12
-8.783140965e-12
-8.784889478e-12
-8.787994031e-12
-8.791876218e-12
-8.795031656e-12
-8.79875753e-12
-1.532397092e-06
-2.757730062e-07
-1.349826875e-05
-5.401673267e-06
-3.368999711e-08
5.218200827e-08
7.045680023e-09
2.846840862e-09
3.956655101e-10
2.010001164e-11
-7.331012714e-12
-8.379963867e-12
-8.543114715e-12