/*--------------------------------*- C++ -*----------------------------------*\
  =========                 |
  \\      /  F ield         | OpenFOAM: The Open Source CFD Toolbox
   \\    /   O peration     | Website:  https://openfoam.org
    \\  /    A nd           | Version:  10
     \\/     M anipulation  |
\*---------------------------------------------------------------------------*/
FoamFile
{
    format      ascii;
    class       volScalarField;
    location    "0.0250188088";
    object      ddt0(rho,C3H7);
}
// * * * * * * * * * * * * * * * * * * * * * * * * * * * * * * * * * * * * * //

dimensions      [1 -3 -1 0 0 0 0];

internalField   nonuniform List<scalar> 
5170
(
1.328356548e-15
1.329226465e-15
1.328908333e-15
1.334794225e-15
1.33733582e-15
4.1608379e-15
4.163030156e-15
4.166884837e-15
4.179749475e-15
4.202372687e-15
4.321365617e-15
4.324826654e-15
4.331446071e-15
4.343880032e-15
4.366960594e-15
4.327098439e-15
4.331364361e-15
4.339868495e-15
4.35187344e-15
4.375774635e-15
4.327503117e-15
4.332562764e-15
4.342239985e-15
4.353701393e-15
4.378706061e-15
4.32777168e-15
4.333594382e-15
4.343956547e-15
4.354803107e-15
4.376486567e-15
4.327855487e-15
4.334229766e-15
4.343542548e-15
4.102775337e-15
2.102997319e-15
4.327897619e-15
4.334774461e-15
4.345559189e-15
4.327229543e-15
1.7451174e-15
4.328086064e-15
4.335182422e-15
4.346052022e-15
4.354917483e-15
4.248327414e-15
4.328337783e-15
4.335608203e-15
4.346241041e-15
4.356232787e-15
4.383173841e-15
4.32859596e-15
4.335860365e-15
4.346204739e-15
4.356375091e-15
4.388777098e-15
4.328847585e-15
4.336106736e-15
4.346081744e-15
4.356409485e-15
4.389912483e-15
4.329062985e-15
4.336173393e-15
4.345741294e-15
4.356402831e-15
4.390878327e-15
4.329158318e-15
4.336101913e-15
4.345249046e-15
4.356236694e-15
4.391576914e-15
4.329564313e-15
4.336191914e-15
4.344807268e-15
4.356134031e-15
4.392283553e-15
4.329224594e-15
4.335671263e-15
4.343959172e-15
4.355738188e-15
4.39253493e-15
4.329437793e-15
4.335465684e-15
4.343003714e-15
4.354956435e-15
4.392382635e-15
4.328532414e-15
4.334396062e-15
4.341738626e-15
4.354207932e-15
4.404208995e-15
4.32657712e-15
4.332231314e-15
4.366477745e-15
3.313047443e-12
-3.594102885e-12
4.369426448e-15
5.087053397e-11
-2.360621411e-10
-2.11756614e-10
2.376198583e-10
8.355797211e-36
3.624979146e-36
1.720126047e-36
-5.149583531e-35
-4.172730614e-35
-4.672789935e-34
-4.779934247e-34
-2.29617601e-35
4.775014172e-35
-2.391987196e-34
2.48856243e-32
-2.112559699e-31
1.373187945e-32
2.594752955e-31
-2.419355035e-31
2.849033765e-28
-3.93582739e-29
3.083378371e-29
2.620314439e-29
-3.837761876e-27
-1.237624798e-25
1.797033612e-26
-6.784642034e-27
4.446533488e-26
-2.504268085e-24
-7.368171667e-22
-6.876136801e-24
2.156224494e-24
-1.130671126e-23
1.353012725e-21
-5.009965268e-22
-1.041000267e-21
-5.500166789e-23
1.318287381e-21
1.54001875e-20
-9.323300861e-21
-1.041685755e-21
2.224515559e-21
-1.952732333e-20
-2.37690232e-20
2.004629425e-20
-2.114129649e-20
3.079278062e-20
2.771862172e-20
6.284867517e-20
7.961979078e-21
3.969254234e-20
-9.458053136e-21
-3.822437026e-20
-7.859903141e-27
1.610543896e-20
3.03322321e-20
-4.462395948e-29
-2.79075044e-20
2.885979957e-24
4.447516684e-18
-1.090366074e-18
-4.07296102e-20
-3.504056605e-20
-5.218272358e-22
5.864406229e-16
2.123673223e-17
1.076738093e-17
1.769390773e-17
-2.593611148e-19
-6.436938292e-15
-1.304559425e-15
-6.040292399e-15
3.995295348e-15
2.807724824e-16
-5.782349213e-15
-2.693236494e-13
-2.656492248e-15
-6.356989659e-14
-6.67102095e-15
3.183591525e-15
-6.017616839e-14
2.324408126e-14
-4.430122646e-14
7.327892154e-15
-2.066336414e-14
2.836821924e-14
-7.919379262e-14
-2.531351132e-14
1.146382414e-14
1.155974769e-13
-1.675480044e-13
-1.755455363e-13
2.916960393e-14
2.579498711e-14
3.676101713e-12
-6.73555302e-15
-3.395956074e-14
4.354647766e-13
1.225473314e-15
8.820377447e-10
2.570271535e-11
-5.638432978e-12
-8.877498624e-13
3.30930343e-14
-2.751630429e-10
-2.376547161e-10
1.706067202e-10
2.554786238e-08
3.435035317e-07
-2.2304308e-10
-2.594678166e-10
-4.514218655e-10
8.508376644e-09
3.589197725e-07
-1.908552942e-10
2.406433715e-10
1.098267046e-07
1.06061735e-08
4.594641097e-08
-1.862040073e-10
-6.820729823e-10
-4.385984638e-08
1.292332829e-08
6.438610362e-08
-3.588078699e-10
-1.056546206e-09
-7.550102305e-09
2.125176473e-09
3.834949241e-08
-3.290423002e-10
-1.417074103e-09
-3.617594835e-09
3.694449355e-10
-9.313696449e-09
1.937479652e-10
1.93320546e-09
3.602540879e-09
-1.918000433e-09
-9.500421937e-08
1.146127079e-09
9.690460101e-08
1.614003319e-08
1.8814109e-08
-9.655029714e-09
-9.06784153e-10
-4.214897101e-08
1.160477691e-08
3.109108218e-08
5.617036481e-08
1.63381567e-09
-1.084231872e-09
-1.338529284e-08
-1.779725754e-08
-1.322952238e-08
-4.386777952e-09
-1.274760937e-08
-4.035201388e-08
-7.480133608e-08
-1.322702855e-07
-3.264683009e-08
-4.355915948e-08
-7.511442794e-08
-8.741062553e-08
-2.001729421e-08
-1.788351341e-08
-2.520019634e-08
-4.355146816e-08
-4.209587203e-08
4.50199906e-08
-6.398668751e-11
-6.320074926e-09
-2.686828742e-10
1.233555705e-08
2.268504279e-08
-1.617699334e-09
8.32981104e-09
1.813549681e-08
4.647379142e-08
6.987019953e-08
3.788888926e-08
2.808821991e-08
8.231710483e-09
-2.617023512e-08
-5.170973158e-08
-2.328125323e-08
3.801156456e-08
2.368560597e-08
-5.223537969e-09
-9.400804916e-07
-7.898670365e-08
1.315541345e-07
2.223863737e-06
-1.735662798e-07
-1.624623013e-07
-5.538092459e-07
-2.65836579e-06
-4.831702279e-07
-4.708751818e-07
5.874108462e-08
-1.136379902e-07
-3.480417317e-07
-3.700548445e-07
-4.252347393e-07
-3.143127904e-07
7.524517036e-08
-9.576163247e-08
-3.346302746e-07
-4.718080926e-07
-4.662055359e-07
-2.724599568e-07
-3.78680497e-07
-5.472329734e-07
-6.900734288e-07
-7.768033403e-07
-6.397529233e-07
-6.941266904e-07
-7.989399414e-07
-9.391112104e-07
-1.104033538e-06
-7.869271182e-07
-7.759107503e-07
-6.724898859e-07
-8.029212293e-07
-8.279203781e-07
3.656059382e-07
4.019895242e-07
4.263219434e-07
6.185523986e-07
7.213114613e-07
7.678551383e-07
7.439808195e-07
7.623667884e-07
8.247470926e-07
8.140753519e-07
4.593200703e-07
4.57119165e-07
4.51991415e-07
4.409659008e-07
4.306105771e-07
2.099994408e-07
2.058483564e-07
2.076069805e-07
1.936979139e-07
1.843095483e-07
8.828791723e-08
8.975157362e-08
9.108409275e-08
7.930338872e-08
7.195904191e-08
3.860625079e-08
3.769800152e-08
3.205257021e-08
2.985372667e-08
2.729956892e-08
2.246966986e-08
2.281039914e-08
2.240207668e-08
1.259473486e-08
7.765253485e-09
5.210921952e-09
5.247651444e-09
5.323257314e-09
5.170154269e-09
4.834384202e-09
2.003859762e-09
1.985752696e-09
2.226493603e-09
2.172902138e-09
2.032324178e-09
8.79604105e-10
8.736693498e-10
8.585880705e-10
8.325215217e-10
8.030437944e-10
2.660512695e-10
3.569239647e-10
3.515046367e-10
3.252521763e-10
3.291638893e-10
1.98577069e-10
1.982443202e-10
1.931315371e-10
1.903033813e-10
1.724273743e-10
1.394918923e-10
1.38857606e-10
1.375754342e-10
1.350558035e-10
1.327536848e-10
1.044606787e-10
1.041721067e-10
1.104467503e-10
1.096467401e-10
1.08222824e-10
8.184319808e-11
8.211186616e-11
8.256757807e-11
8.326294166e-11
8.373659854e-11
5.291301061e-11
5.309708369e-11
5.241562634e-11
5.365905043e-11
5.442055296e-11
2.757924005e-11
2.776088388e-11
2.809185488e-11
2.839572591e-11
2.806009631e-11
-1.428664736e-12
-1.184458845e-12
-6.319411364e-13
9.754315298e-14
3.711846526e-12
-7.256686215e-13
-3.187380591e-13
4.708166522e-13
-7.133453678e-13
5.804928082e-13
-8.047455559e-13
1.3718733e-12
-3.024567384e-12
-1.019992321e-12
-2.35944426e-12
3.817509208e-13
6.744030953e-14
8.081226765e-13
4.803355631e-13
1.454313744e-13
-2.447312739e-13
-6.036735193e-13
-1.090459084e-12
-6.259085613e-13
5.137288851e-13
-4.037450251e-13
-1.890767888e-14
-2.480551582e-13
-1.407236261e-12
-8.920172468e-13
-3.361767235e-14
9.845322783e-14
2.086934158e-13
3.982592958e-14
5.813555281e-14
-1.304028782e-14
-2.836080795e-14
4.315552626e-14
-7.066922665e-14
1.28925824e-14
1.206844123e-14
-1.19305168e-14
-2.342651822e-14
5.466841306e-14
6.062217978e-14
-8.153025876e-15
-9.918835535e-15
-2.395663838e-14
-2.494240547e-14
-1.560471702e-14
-2.320880897e-14
-1.576383175e-14
-1.735611478e-14
-2.696397614e-14
-5.85888287e-15
8.11141236e-15
8.42730294e-15
8.711580593e-15
9.124989922e-15
8.24370493e-15
4.857801945e-15
4.768903322e-15
4.845443997e-15
5.433051608e-15
5.575203771e-15
-5.282526724e-15
2.343231733e-15
5.929187596e-15
7.279900846e-15
-3.243889151e-16
4.588865494e-16
-2.107704836e-15
-3.89382288e-15
-2.779912128e-14
-1.14398864e-13
-8.80381618e-14
-8.862670657e-14
-8.919165525e-14
-8.829210897e-14
-8.829110652e-14
-9.901964568e-14
-9.881225489e-14
-9.758606046e-14
-9.460562952e-14
-9.247520073e-14
-1.032398352e-13
-1.03485736e-13
-1.034557739e-13
-1.027473394e-13
-1.046616885e-13
2.479517556e-14
2.303664189e-14
2.049558869e-14
1.636341335e-14
1.364058609e-14
8.664203551e-15
8.249626526e-15
8.659940245e-15
8.304153019e-15
8.091357538e-15
8.969216658e-15
8.641795036e-15
8.001279343e-15
7.227011084e-15
6.659703118e-15
-4.646208422e-15
-4.28684444e-15
-3.568350825e-15
-3.275451839e-15
-9.469801343e-15
-6.088178038e-13
-6.139039988e-13
-6.167783563e-13
-6.118465492e-13
-5.75653836e-13
-6.226822958e-13
-6.279054561e-13
-6.303345554e-13
-6.245020594e-13
-5.862499526e-13
-5.95485119e-13
-5.996146132e-13
-6.002305893e-13
-5.932180415e-13
-5.561446409e-13
-6.674200997e-14
-6.67367268e-14
-6.479714077e-14
-6.259742046e-14
-5.802998089e-14
-3.763995843e-14
-3.732720206e-14
-3.669039614e-14
-3.57955433e-14
-3.463803628e-14
7.22478665e-15
7.190063135e-15
6.890997698e-15
6.055853467e-15
3.954247573e-15
3.271567942e-14
3.264385899e-14
3.218627598e-14
3.094764993e-14
2.810691991e-14
-4.946584039e-06
1.897496575e-09
-1.086579171e-07
-8.217453179e-08
5.640848426e-09
-1.671050058e-08
-1.457000914e-07
-7.008589597e-08
1.408131114e-08
-3.147819596e-09
-1.851662013e-07
7.347487115e-08
8.765765702e-08
2.640493041e-08
-1.571512435e-08
-7.987882875e-08
-9.656508779e-08
-4.252433204e-07
-2.684605862e-07
-2.230267464e-07
-3.830004143e-07
-7.887068732e-07
-1.218698935e-06
-8.417306008e-07
8.185032676e-07
8.059597464e-07
4.15470671e-07
1.791616357e-07
6.457038967e-08
2.563243578e-08
1.055625075e-08
4.622900033e-09
1.995762222e-09
7.881255794e-10
3.088649892e-10
1.274489191e-10
1.301547467e-10
1.036267458e-10
8.451038526e-11
5.606514395e-11
2.512968442e-11
4.540034278e-12
-3.540224046e-12
-1.552257014e-12
-4.247532444e-14
2.769722142e-14
-4.495179911e-12
1.277456404e-13
1.471184521e-14
7.794805409e-14
-2.3789993e-14
-1.205519443e-14
9.672440667e-15
1.038288912e-14
-9.124786299e-15
-1.043504222e-13
-8.794599487e-14
-9.1437453e-14
-1.089608195e-13
5.679850798e-15
8.419665959e-15
6.561880778e-15
5.52983605e-15
-5.0851731e-13
-5.19339387e-13
-4.920682032e-13
-5.298854533e-14
-3.488137371e-14
2.222536454e-15
2.53975904e-14
7.571796152e-08
1.999556621e-08
3.626749625e-10
2.968010367e-12
2.852743341e-13
1.094667382e-07
3.681726996e-08
-1.062107573e-08
5.964273804e-11
1.689540173e-12
2.18711437e-08
-1.529487096e-08
1.608461841e-08
1.927582887e-09
-5.519284074e-11
1.367914402e-09
-6.353328846e-07
-2.855490579e-08
2.673295775e-09
4.611955958e-10
-1.163520216e-07
-7.464015754e-07
-3.618411155e-06
-8.674298324e-07
-1.442449369e-08
1.350465684e-07
9.521902605e-07
1.080282628e-06
3.535585936e-07
1.294544326e-08
1.30956631e-08
-5.117442439e-07
-7.329078049e-07
2.41538956e-08
2.721625687e-08
-5.669400761e-08
-6.880604771e-08
2.673877477e-07
-1.104448209e-08
-2.742794806e-09
-1.989949045e-08
-1.033710349e-07
-2.185783182e-07
-2.11692967e-06
-3.333088753e-07
2.159298971e-09
1.558705821e-08
-3.745997773e-07
-2.652984904e-05
-8.300747885e-09
6.784310321e-08
-6.578449636e-09
-5.746682775e-07
1.87515901e-05
3.997059763e-08
-3.949730652e-08
1.567627133e-08
5.873723417e-07
9.100369005e-06
5.451179687e-07
-2.271054723e-08
-8.111004677e-07
-8.87130853e-08
3.560468712e-07
-1.861386161e-08
2.917802948e-08
2.646759771e-07
3.070473447e-09
-2.205968257e-08
-4.344530137e-08
1.697654511e-08
2.801641021e-07
-2.606764114e-09
-4.699001541e-08
1.579966874e-05
-4.572603308e-07
2.431266403e-07
-1.286692953e-08
-5.964726231e-08
-1.766556373e-05
4.320233006e-07
-7.029894875e-08
-2.130328397e-07
-1.628050255e-06
-7.664365533e-08
-5.721765388e-08
-7.638292895e-08
-2.282945203e-07
-7.468982806e-07
4.545185937e-07
-1.94835006e-07
-2.306552198e-07
-4.264304716e-07
-8.624888234e-07
-1.772744856e-05
-5.52454549e-08
1.909478057e-07
1.274296339e-06
4.143542816e-06
-7.676473045e-06
-1.602837931e-07
4.147427612e-07
1.716200273e-06
5.224969037e-06
1.270759971e-05
-7.220378491e-07
-4.524279649e-07
2.605732913e-07
1.814997027e-06
3.481622803e-06
-1.369401695e-06
-1.509996256e-06
-1.116719582e-06
1.234844982e-06
7.258305902e-06
-8.838554901e-07
-5.422805305e-07
4.744364959e-07
1.871483147e-06
2.909998731e-06
8.992632083e-07
1.082556538e-06
1.200812336e-06
1.191615832e-06
1.056632372e-06
8.259129139e-07
7.950994089e-07
7.0734541e-07
5.795712284e-07
4.400619174e-07
4.088683587e-07
3.556994892e-07
3.378216016e-07
2.50593403e-07
1.907383925e-07
1.821421395e-07
1.484263769e-07
1.408971748e-07
1.074235667e-07
7.129773379e-08
5.907147619e-08
5.659537894e-08
3.99284255e-08
5.326517508e-08
3.227220175e-08
2.262240762e-08
4.493554912e-08
1.306884858e-08
1.900005888e-08
1.333611831e-08
1.124923483e-08
1.040370356e-08
7.993847196e-09
9.291883529e-09
6.793248021e-09
4.568314882e-09
4.687935175e-09
1.759462776e-09
2.672890016e-09
3.393448657e-09
1.869736058e-09
1.835640747e-09
1.688495533e-09
1.043227587e-09
5.842986123e-10
8.647467303e-10
5.019496631e-10
6.849551629e-10
5.861664652e-10
3.679302767e-10
2.577875274e-10
2.194511226e-10
3.156595284e-10
1.936606489e-10
2.025745108e-10
2.229963113e-11
1.480736312e-10
1.126012746e-10
1.24764488e-10
1.268909254e-10
1.273246847e-10
1.250567013e-10
1.428418552e-10
1.265541986e-10
1.237719307e-10
1.044247131e-10
1.083257245e-10
1.14706754e-10
1.110363189e-10
1.122502203e-10
8.543241102e-11
8.929163181e-11
9.206992037e-11
8.642739899e-11
8.898944397e-11
5.727981518e-11
6.039150713e-11
5.546073662e-11
5.569470427e-11
5.101932867e-11
2.392491921e-11
2.557111186e-11
2.949155504e-11
3.286608491e-11
3.472935676e-11
5.688100029e-12
1.018682131e-11
1.044212899e-11
1.358152023e-11
5.415662974e-12
-3.374796505e-14
2.753850235e-12
2.13949508e-12
2.611387205e-12
7.77026569e-13
5.846877761e-13
-2.841894911e-13
1.445891892e-12
-2.102435751e-13
4.198832846e-13
4.058596487e-13
-1.066430765e-12
2.0694006e-12
-1.850857216e-12
8.592338295e-13
-4.167943309e-13
-3.494352328e-13
3.230094875e-12
-1.361894863e-11
1.254892811e-12
-1.43834565e-12
1.332035444e-11
-5.433387115e-12
-1.785020726e-14
-3.235175562e-14
4.517780655e-14
7.664317632e-14
4.842692134e-15
-2.91038489e-14
1.594181915e-14
-2.582696714e-14
2.652482084e-14
-2.316788629e-14
4.206637066e-14
1.667465117e-14
8.528403562e-14
-1.112254752e-14
1.559705974e-15
-1.791070935e-14
2.522220799e-14
-1.77279836e-14
-2.304613803e-14
-3.188731271e-14
8.181785958e-15
3.044982768e-15
-9.648157369e-15
-1.7494336e-14
6.474788988e-15
2.441974558e-15
8.37359216e-15
3.540530079e-15
1.558559523e-15
2.09366902e-15
6.36523837e-15
6.537966792e-15
7.341207374e-15
1.356718153e-14
4.152572393e-14
3.018119099e-14
-6.074545334e-14
6.657276769e-15
-4.358974441e-14
-1.16958532e-13
-1.335799651e-13
-1.167099349e-13
-1.231473778e-13
-1.024219433e-13
-1.099745944e-13
-1.115804518e-13
-1.107907991e-13
-9.90667752e-14
-1.060241664e-13
-1.065046978e-13
-1.049162584e-13
-1.065433444e-13
-1.00357612e-13
-1.063637568e-13
-1.106836499e-13
-1.313666914e-13
-2.055187651e-13
-1.311381261e-13
-1.860187514e-13
-3.268635592e-13
-2.728615424e-13
-2.385369537e-14
-4.853740563e-15
-9.717463459e-15
-3.01511775e-14
-2.280521168e-15
4.674114522e-16
6.894926185e-15
4.860059796e-15
3.922101628e-15
4.320390981e-15
6.98524165e-15
5.036152865e-15
5.655902846e-15
8.922859744e-15
1.266740724e-14
-3.211450149e-14
8.714539733e-15
-3.797951372e-14
-6.349279979e-13
-6.734960715e-13
-6.795550853e-13
-6.529945316e-13
-6.816296695e-13
-6.876148769e-13
-6.873937095e-13
-6.888353486e-13
-6.615442396e-13
-6.858164414e-13
-6.813664622e-13
-6.744278264e-13
-6.73547215e-13
-6.419482129e-13
-6.819900356e-13
-6.494210649e-13
-6.563041632e-14
-2.55801273e-14
-5.844832626e-14
-5.749607112e-14
-3.35696051e-14
-2.912374991e-14
-2.668621735e-14
-3.278209223e-14
-3.056071575e-14
-2.840123826e-14
-2.6716705e-14
-2.490835927e-14
3.485514427e-15
2.467896338e-15
1.958565371e-15
1.029738493e-15
-2.406786616e-15
2.128994012e-14
-3.591857604e-14
-1.189041096e-14
-2.270704186e-14
-1.894028582e-14
-3.796905193e-13
-7.698933421e-11
-1.210678013e-11
-5.197760798e-12
-4.472828968e-12
-4.377885195e-12
-4.369445101e-12
-4.367087963e-12
-4.366944128e-12
-4.364636776e-12
-4.364735849e-12
-4.364744254e-12
-4.364337261e-12
-4.364406483e-12
-4.361583249e-12
-4.339177022e-12
-4.340961355e-12
-4.364148942e-12
-4.368813492e-12
-4.37057288e-12
-4.371397464e-12
-4.372197937e-12
-4.373028408e-12
-4.373889719e-12
-4.374798425e-12
-4.375686737e-12
-4.376546954e-12
-4.377383892e-12
-4.378210137e-12
-4.37902647e-12
-4.379826079e-12
-4.380593873e-12
-4.381329578e-12
-4.382058591e-12
-4.382789687e-12
-4.383508194e-12
-4.384201909e-12
-4.384888861e-12
-4.385583548e-12
-4.38627838e-12
-4.386962425e-12
-4.387641712e-12
-4.388323868e-12
-4.389007638e-12
-4.389706365e-12
-4.390381993e-12
-4.391035368e-12
-4.391691265e-12
-4.392338627e-12
-4.3929695e-12
-4.393568623e-12
-4.394145753e-12
-4.394691655e-12
-4.395215501e-12
-4.395812593e-12
-4.397252505e-12
-4.403738175e-12
-4.430688608e-12
-4.518158542e-12
-4.635762613e-12
-3.13932978e-11
-4.452299702e-10
-2.578307279e-12
-1.857637438e-12
-3.210709465e-12
-3.520901882e-12
-3.58731056e-12
-3.603641654e-12
-3.60418874e-12
-3.60645921e-12
-3.607436288e-12
-3.609535063e-12
-3.613120733e-12
-3.61498308e-12
-3.6105887e-12
-3.579622481e-12
-3.580885144e-12
-3.618337991e-12
-3.628504172e-12
-3.631562284e-12
-3.632569834e-12
-3.633711709e-12
-3.635051564e-12
-3.636269341e-12
-3.637411858e-12
-3.638623468e-12
-3.639788794e-12
-3.641096021e-12
-3.642415329e-12
-3.643603156e-12
-3.64483414e-12
-3.645998256e-12
-3.647134415e-12
-3.648489702e-12
-3.649872783e-12
-3.651095864e-12
-3.652270537e-12
-3.653532709e-12
-3.65489399e-12
-3.656150852e-12
-3.657431346e-12
-3.658762653e-12
-3.660048192e-12
-3.6613843e-12
-3.662852428e-12
-3.664215954e-12
-3.665594909e-12
-3.666829734e-12
-3.668054607e-12
-3.669326954e-12
-3.670297853e-12
-3.671475557e-12
-3.672476223e-12
-3.673454411e-12
-3.674483869e-12
-3.676689782e-12
-3.68339663e-12
-3.705985508e-12
-3.752466428e-12
-3.780882507e-12
-2.789714216e-10
2.131478526e-09
-1.280919766e-11
-2.141028444e-12
-1.18562821e-12
-1.1120213e-12
-1.122523724e-12
-1.127041878e-12
-1.145311225e-12
-1.163819254e-12
-1.173752128e-12
-1.186441868e-12
-1.193695504e-12
-1.199904045e-12
-1.198344257e-12
-1.166124491e-12
-1.167572561e-12
-1.211145086e-12
-1.22249453e-12
-1.225684338e-12
-1.227310054e-12
-1.22927466e-12
-1.231518138e-12
-1.233833789e-12
-1.23615277e-12
-1.238443608e-12
-1.240636809e-12
-1.242752896e-12
-1.244787959e-12
-1.246688528e-12
-1.248488036e-12
-1.250232421e-12
-1.251904893e-12
-1.253549556e-12
-1.25513441e-12
-1.256659343e-12
-1.258172767e-12
-1.259615287e-12
-1.261110561e-12
-1.262573291e-12
-1.263994977e-12
-1.265442461e-12
-1.266889397e-12
-1.268281802e-12
-1.269740825e-12
-1.27114072e-12
-1.27254127e-12
-1.273853214e-12
-1.275173488e-12
-1.276428839e-12
-1.277611273e-12
-1.278719667e-12
-1.279722565e-12
-1.280662705e-12
-1.281586776e-12
-1.282464864e-12
-1.282541163e-12
-1.275616261e-12
-1.23279e-12
-1.169631544e-12
-6.036313561e-10
-1.66517281e-09
-3.779221721e-10
-2.396387256e-11
-2.041683708e-12
2.693793225e-13
7.323520571e-13
7.989536711e-13
7.465205083e-13
6.802805427e-13
6.266813501e-13
5.918140713e-13
5.700855086e-13
5.571165752e-13
5.54396283e-13
5.825726514e-13
5.791030223e-13
5.362504856e-13
5.262959371e-13
5.23941744e-13
5.226188496e-13
5.205790215e-13
5.180148795e-13
5.153278004e-13
5.127794502e-13
5.104169511e-13
5.082190397e-13
5.061923444e-13
5.043234601e-13
5.026011059e-13
5.010259102e-13
4.995804513e-13
4.982551973e-13
4.970322258e-13
4.958932598e-13
4.948434179e-13
4.938567455e-13
4.929020611e-13
4.919389309e-13
4.909998538e-13
4.900804164e-13
4.891592015e-13
4.882356407e-13
4.873304959e-13
4.863916778e-13
4.854576839e-13
4.845076793e-13
4.835791084e-13
4.826193687e-13
4.817278841e-13
4.808424362e-13
4.80044669e-13
4.792774751e-13
4.786411428e-13
4.781061073e-13
4.783982566e-13
4.817899765e-13
4.984037321e-13
5.512498211e-13
6.100060769e-13
-5.279642111e-11
-5.565137212e-09
-1.103086648e-09
-3.995352781e-10
-2.506583542e-11
1.379359981e-13
2.430431116e-12
2.423048687e-12
2.095831148e-12
1.798167887e-12
1.595921783e-12
1.479521511e-12
1.418361669e-12
1.389133532e-12
1.380362038e-12
1.407869429e-12
1.402384033e-12
1.360863264e-12
1.35322318e-12
1.352872766e-12
1.35315961e-12
1.352250223e-12
1.350610229e-12
1.348799334e-12
1.347070681e-12
1.345504329e-12
1.344090133e-12
1.342841962e-12
1.341747828e-12
1.340789713e-12
1.339973774e-12
1.339279763e-12
1.338695714e-12
1.338219469e-12
1.337830569e-12
1.337508921e-12
1.337244893e-12
1.337006687e-12
1.336763593e-12
1.336528851e-12
1.336278833e-12
1.336005509e-12
1.335698447e-12
1.335359239e-12
1.33497304e-12
1.334543296e-12
1.33404971e-12
1.333524612e-12
1.33293654e-12
1.332347516e-12
1.331739567e-12
1.331161259e-12
1.330576154e-12
1.330101959e-12
1.329769034e-12
1.330205341e-12
1.333086263e-12
1.344804163e-12
1.375780518e-12
1.406860095e-12
-6.770302859e-10
-1.035855635e-08
-5.585003561e-09
-1.74768252e-09
-6.300902857e-11
9.335327895e-12
7.246273337e-12
5.090583216e-12
3.69757945e-12
2.778069295e-12
2.219175631e-12
1.918179871e-12
1.774018862e-12
1.711500325e-12
1.691279541e-12
1.718598939e-12
1.710638929e-12
1.669201332e-12
1.662361082e-12
1.662755031e-12
1.663985566e-12
1.663971727e-12
1.663121719e-12
1.662046551e-12
1.660991591e-12
1.660045893e-12
1.659228312e-12
1.65856707e-12
1.658037556e-12
1.657639226e-12
1.657371543e-12
1.657214195e-12
1.657170185e-12
1.657214134e-12
1.657342259e-12
1.657531879e-12
1.657771487e-12
1.658051341e-12
1.658320506e-12
1.658584982e-12
1.658836542e-12
1.659032348e-12
1.65917421e-12
1.65925667e-12
1.659259003e-12
1.659184304e-12
1.659023127e-12
1.658775961e-12
1.658423184e-12
1.658041016e-12
1.657578924e-12
1.657107057e-12
1.65659915e-12
1.656126122e-12
1.655770449e-12
1.655841581e-12
1.65715424e-12
1.662234575e-12
1.675111307e-12
1.687743589e-12
1.267094006e-09
-2.361023696e-09
-1.480169182e-08
-2.500202417e-09
-6.335326632e-10
-5.988855239e-12
1.107200353e-11
8.495439071e-12
5.946630082e-12
4.0759238e-12
2.908907107e-12
2.270207487e-12
1.966803625e-12
1.842481378e-12
1.799287367e-12
1.822700972e-12
1.812903258e-12
1.768796459e-12
1.761161304e-12
1.761472045e-12
1.76291926e-12
1.763351847e-12
1.762725048e-12
1.761878122e-12
1.76101816e-12
1.760259334e-12
1.759634022e-12
1.759142149e-12
1.758749909e-12
1.758537094e-12
1.758443317e-12
1.758472446e-12
1.758625844e-12
1.758899418e-12
1.759216066e-12
1.759687982e-12
1.760163726e-12
1.760700176e-12
1.761254929e-12
1.761804915e-12
1.762345475e-12
1.762843679e-12
1.763253228e-12
1.763632648e-12
1.763884247e-12
1.764020702e-12
1.764078435e-12
1.764005517e-12
1.763844966e-12
1.763571646e-12
1.76321354e-12
1.762782947e-12
1.762275082e-12
1.761829087e-12
1.761205596e-12
1.761076076e-12
1.761052734e-12
1.762418016e-12
1.766516313e-12
1.77109689e-12
3.606263576e-11
-1.101499182e-09
-1.924205143e-08
-9.991708963e-09
-3.667167221e-09
-5.501476527e-11
5.962744218e-11
2.323633662e-11
1.18465063e-11
6.771601533e-12
4.120378378e-12
2.786944053e-12
2.172572756e-12
1.92709809e-12
1.846034142e-12
1.859473505e-12
1.845819892e-12
1.799397315e-12
1.790230137e-12
1.789342808e-12
1.791414125e-12
1.791460147e-12
1.7912201e-12
1.790246789e-12
1.789305029e-12
1.788293408e-12
1.787590504e-12
1.787022447e-12
1.786536588e-12
1.786165235e-12
1.786013995e-12
1.785983557e-12
1.786117663e-12
1.786371732e-12
1.786827256e-12
1.78725278e-12
1.787900738e-12
1.788469961e-12
1.789234675e-12
1.789902828e-12
1.790690832e-12
1.791290443e-12
1.791988121e-12
1.79260645e-12
1.793011011e-12
1.793348622e-12
1.793555361e-12
1.793626973e-12
1.793527235e-12
1.793464395e-12
1.793233201e-12
1.792747058e-12
1.792276941e-12
1.791756883e-12
1.791233329e-12
1.7906828e-12
1.790106062e-12
1.789886142e-12
1.79084608e-12
1.792619814e-12
-6.261288282e-08
-2.33632445e-09
-7.31703974e-09
-2.403059353e-08
-5.502745634e-09
3.334879277e-10
2.751799019e-10
5.873529158e-11
2.254212263e-11
1.14350382e-11
6.19812855e-12
3.623266712e-12
2.47955766e-12
2.027972968e-12
1.879725609e-12
1.87881978e-12
1.859013883e-12
1.808354386e-12
1.799711447e-12
1.798188497e-12
1.799074656e-12
1.799894861e-12
1.799613494e-12
1.798020664e-12
1.797153874e-12
1.795866051e-12
1.794854519e-12
1.794031534e-12
1.793265302e-12
1.792746114e-12
1.79248499e-12
1.792144311e-12
1.792069828e-12
1.792175649e-12
1.792667376e-12
1.793020241e-12
1.793480741e-12
1.794407951e-12
1.795040483e-12
1.7959309e-12
1.796845302e-12
1.797779638e-12
1.798056243e-12
1.799517131e-12
1.800035171e-12
1.800429533e-12
1.800762766e-12
1.800982709e-12
1.801040126e-12
1.800969089e-12
1.800737489e-12
1.800387294e-12
1.799940844e-12
1.799419767e-12
1.798844358e-12
1.798161749e-12
1.797351872e-12
1.796635007e-12
1.796632754e-12
1.797570556e-12
9.713068946e-09
3.094252829e-09
-3.205561472e-09
-3.821843218e-08
-1.320871029e-08
-1.38966849e-09
1.236564564e-10
1.23944431e-10
4.502481621e-11
2.049038925e-11
9.840371543e-12
4.95484756e-12
2.921937653e-12
2.162601012e-12
1.91554287e-12
1.893781316e-12
1.869076944e-12
1.812725345e-12
1.802747672e-12
1.802160826e-12
1.803109515e-12
1.803397517e-12
1.802848533e-12
1.801540239e-12
1.799997526e-12
1.798589615e-12
1.797370212e-12
1.796234343e-12
1.795177248e-12
1.794308608e-12
1.793660883e-12
1.793202799e-12
1.792931825e-12
1.792875372e-12
1.793063786e-12
1.793427919e-12
1.793945461e-12
1.794654992e-12
1.795475361e-12
1.796375732e-12
1.797445085e-12
1.79834396e-12
1.799321341e-12
1.800260519e-12
1.801036642e-12
1.801653267e-12
1.802126913e-12
1.802459416e-12
1.802632743e-12
1.802637434e-12
1.802481121e-12
1.802179273e-12
1.8017594e-12
1.801242113e-12
1.800632039e-12
1.799884769e-12
1.798998687e-12
1.798180284e-12
1.797905612e-12
1.798588802e-12
1.395207937e-08
-1.968369183e-08
-1.570067293e-09
-1.87478379e-08
-3.244613203e-08
-2.155641227e-09
3.751682934e-09
6.176940804e-10
1.061418949e-10
3.725764678e-11
1.541964005e-11
6.755583731e-12
3.446062869e-12
2.299664634e-12
1.952015188e-12
1.907170738e-12
1.877025401e-12
1.81750475e-12
1.806345065e-12
1.805340414e-12
1.806501583e-12
1.806453577e-12
1.805649624e-12
1.804245636e-12
1.802498164e-12
1.800754457e-12
1.799141434e-12
1.797666266e-12
1.796315208e-12
1.795132135e-12
1.794189778e-12
1.793485597e-12
1.792983299e-12
1.792706872e-12
1.792685638e-12
1.792914644e-12
1.7933663e-12
1.79401162e-12
1.794828187e-12
1.795775865e-12
1.796808166e-12
1.797863289e-12
1.798907927e-12
1.79989229e-12
1.800780626e-12
1.801527958e-12
1.802120724e-12
1.802560919e-12
1.80282795e-12
1.802910752e-12
1.802819473e-12
1.802560673e-12
1.802167106e-12
1.801654018e-12
1.801019634e-12
1.800235444e-12
1.799327312e-12
1.798506905e-12
1.798138085e-12
1.798748954e-12
5.506119525e-08
8.934822507e-09
-3.710701688e-10
-1.366662541e-08
-9.96374819e-08
-9.912855195e-09
-8.378103774e-09
9.222535989e-10
3.286780053e-10
8.408429289e-11
2.628254339e-11
9.326796873e-12
4.001533683e-12
2.416342948e-12
1.983394115e-12
1.918152458e-12
1.882775364e-12
1.82304928e-12
1.811731583e-12
1.808348224e-12
1.809124813e-12
1.809972956e-12
1.809619313e-12
1.807760149e-12
1.80545721e-12
1.803299552e-12
1.801273377e-12
1.799425177e-12
1.797776555e-12
1.796305576e-12
1.795040799e-12
1.794028504e-12
1.793268339e-12
1.792761196e-12
1.792526673e-12
1.792573455e-12
1.792885922e-12
1.793431959e-12
1.794177989e-12
1.79508522e-12
1.79610719e-12
1.797191585e-12
1.798279456e-12
1.799325022e-12
1.800293879e-12
1.801139484e-12
1.80182565e-12
1.802348626e-12
1.802692296e-12
1.802841648e-12
1.802804723e-12
1.802586251e-12
1.802211622e-12
1.801696806e-12
1.80104478e-12
1.800237147e-12
1.799324326e-12
1.798523227e-12
1.798098493e-12
1.798694145e-12
5.479255212e-09
1.124225313e-09
-9.514869377e-10
-1.391404179e-08
-1.456515158e-07
-1.86548833e-08
-1.494107596e-09
5.530989096e-09
7.605322497e-10
1.724306356e-10
4.243117975e-11
1.200394232e-11
4.34285277e-12
2.435890122e-12
1.983636879e-12
1.928251692e-12
1.894666646e-12
1.825247112e-12
1.812835749e-12
1.812623466e-12
1.813952013e-12
1.814624243e-12
1.813745237e-12
1.811142214e-12
1.808763472e-12
1.806513365e-12
1.804078602e-12
1.80176348e-12
1.799736432e-12
1.797951798e-12
1.796378133e-12
1.795050296e-12
1.794000263e-12
1.793236236e-12
1.792764232e-12
1.792593303e-12
1.792720482e-12
1.793117466e-12
1.793747697e-12
1.794570702e-12
1.795541306e-12
1.796608051e-12
1.797709166e-12
1.798787887e-12
1.799804008e-12
1.800712936e-12
1.801467883e-12
1.802053598e-12
1.802456673e-12
1.802658903e-12
1.802663842e-12
1.802477641e-12
1.802119605e-12
1.801601581e-12
1.800935329e-12
1.800113313e-12
1.79920575e-12
1.798424742e-12
1.797952367e-12
1.798605761e-12
-6.254859323e-09
-7.288303306e-10
2.545697409e-08
-1.092931091e-08
-1.305087751e-07
-2.389991329e-08
8.051499782e-09
1.441239719e-08
2.684539846e-09
3.684517136e-10
6.209832763e-11
1.381633317e-11
4.359218864e-12
2.389089297e-12
1.981014597e-12
1.935135455e-12
1.895272315e-12
1.82702146e-12
1.816940965e-12
1.81664069e-12
1.81778285e-12
1.818863377e-12
1.817742299e-12
1.815397522e-12
1.812646062e-12
1.809784261e-12
1.807056718e-12
1.804514117e-12
1.802145312e-12
1.799992894e-12
1.79809671e-12
1.796462383e-12
1.795108598e-12
1.794067716e-12
1.793347032e-12
1.79294238e-12
1.792855465e-12
1.793071941e-12
1.793555887e-12
1.794264757e-12
1.795152605e-12
1.796166823e-12
1.797247121e-12
1.798329533e-12
1.799362641e-12
1.800304847e-12
1.801104119e-12
1.801730889e-12
1.802176101e-12
1.802416504e-12
1.802451976e-12
1.802288822e-12
1.801942735e-12
1.801422504e-12
1.800744544e-12