/*--------------------------------*- C++ -*----------------------------------*\
  =========                 |
  \\      /  F ield         | OpenFOAM: The Open Source CFD Toolbox
   \\    /   O peration     | Website:  https://openfoam.org
    \\  /    A nd           | Version:  10
     \\/     M anipulation  |
\*---------------------------------------------------------------------------*/
FoamFile
{
    format      ascii;
    class       volScalarField;
    location    "0.0250188088";
    object      ddt0(epsilon);
}
// * * * * * * * * * * * * * * * * * * * * * * * * * * * * * * * * * * * * * //

dimensions      [0 2 -4 0 0 0 0];

internalField   nonuniform List<scalar> 
5170
(
-3022.177603
6601.770247
3705.559248
-10673.9381
65258.39716
-2644.73508
2350.151288
2878.197809
2151.73237
110362.21
-18921.11571
-22752.67352
-11362.06723
-3258.03954
-170005.925
26128.91484
12589.66091
4117.168078
-1799.546024
-123653.4119
22347.55111
67672.47789
41113.80241
1360.435922
-256516.3235
-61749.33779
-102010.7309
-76483.32914
-2768.383566
-1009556.032
-6844.817534
-27038.7699
-105336.4944
-26850.8228
-1059934.342
36740.28266
39346.42609
67401.73322
108829.4101
-1159350.185
21695.50033
34056.65244
-8174.836176
-97723.70235
-1160345.802
-11157.5059
19763.66503
74012.09128
-563860.4842
-1298738.717
-20801.19119
-7846.225709
30360.62554
273378.8788
-1451357.64
-6033.113064
-20187.64466
-25567.31205
618201.4974
-1522255.264
6347.412294
-12224.70851
-42017.86261
341468.8925
-1520459.795
9333.562439
2118.21476
-18379.31776
-110683.1873
-1550875.125
3216.656327
10324.36951
3407.334917
-268669.7966
-1598870.422
-4848.476708
5026.877756
25359.94166
-193200.6293
-1716791.384
-1690.25615
-2306.538955
14297.35858
77523.95743
-1757613.276
4301.397218
2460.63547
-28941.93148
274045.1205
-1747190.285
2529.099145
5044.724475
-9593.865885
195762.8573
-1702951.043
1525.168895
9145.045839
27319.45617
-103965.7106
-1144316.607
51777.58822
-329.4487402
286.3303087
650.1668558
54212.20906
53061.80095
8.550981951
-28.75853717
-419.3069125
47131.79441
30015.21188
115.6642559
15.74750939
113.9551005
22421.51661
21983.93587
125.5065495
86.6274247
86.53560994
16626.73177
22580.52772
-79.22184099
-61.11180108
23.11745493
20970.33441
24132.94788
-116.4846581
-72.75978679
83.88157241
28806.0357
25764.09693
-91.14417339
32.22269049
722.6503257
41824.78833
25019.13245
-89.75311987
126.2880427
181.4939733
53624.75555
34677.61895
13.97121915
139.1788829
1556.44524
59119.10134
47673.58261
198.3011091
342.9816865
2994.909684
62624.20073
41709.24257
-25.77069929
-171.9366423
-3107.189346
54358.88713
38019.82228
8.49096632
245.2760552
-7145.011003
74915.06089
46437.43074
858.874811
2810.412043
26317.00657
97066.1891
77381.81237
676.3121475
233.63675
12861.58123
76740.63495
75277.8565
-2434.853123
-2869.049156
-84220.17368
84991.37601
73195.65263
-1028.536189
-5097.831744
9536.862755
156329.8487
78762.9133
3360.886046
11096.57811
74184.67472
193396.5936
99380.06241
1052.275986
11347.30313
50750.7188
162943.9176
94239.48567
-991.4513973
-1407.279774
-18194.43348
121794.3325
291005.9489
15769.28187
16542.79221
-49673.99058
292523.0501
3808.777597
3117.835609
59229.65801
180744.6019
-436386.3519
-8215.492028
2375.202902
14805.07177
-64791.06782
522720.5895
1138.738299
20695.22465
132571.4841
558942.1655
188821.1198
11599.90035
20538.28023
253817.4899
429692.5362
531869.4357
-26084.56681
-6541.286109
-100126.946
78644.2914
893410.6323
-12428.40247
-58374.36591
-410035.8963
101241.1614
635898.2749
-5226.129666
19252.98169
-5148.622058
226770.7268
258378.5905
11720.80777
79171.34133
437524.1548
278200.5636
181560.0752
24882.81024
145846.8539
635247.1114
706368.0331
812225.2743
39032.75093
125938.6059
406418.9863
584484.8855
530562.9596
-4708.385894
55342.34642
-23839.19603
-1516.104259
-36939.55107
6394.368276
-543965.5486
-469420.0818
-324546.1734
-354794.7868
-434838.6228
-439613.8711
-581413.3673
-622112.0005
-820231.1808
-112475.231
-287964.4124
-398816.0868
-376106.9591
-202922.1586
-106792.3664
2122.581799
114030.497
194431.2761
225483.1177
483440.9774
459192.2325
207013.6872
-23118.36455
-706147.0681
-387332.3436
-356446.7112
-395865.248
-470749.7596
-294650.5184
-298091.1422
-195959.3829
-29815.13042
-13899.44002
-18203.33591
660748.0677
377831.1897
-384830.3028
-1431513.578
-2512736.611
-495781.8065
-1089319.501
-2264489.213
-4117148.404
-6582010.989
-5213660.121
-6149943.99
-9013425.971
-13755156.12
-21015508.97
-21788984.37
-22483885.8
-23584456.93
-24039060.09
-21747803.65
-15584708.01
-14787509.08
-13098106.75
-10239577.58
-7650793.211
-2937866.741
-2648558.026
-2076169.784
-1712725.528
295872.7279
1948401.125
2749716.761
5345864.742
8992795.372
11825104.9
12158677.32
12178261.16
11610704.35
11109981.75
10951572.39
8124067.076
8077315.33
7983733
7857793.736
7672223.254
5054110.792
5055719.783
4997307.056
4918910.733
4807462.796
3001240.547
2996767.573
2960181.549
2909771.479
2840791.906
1736236.717
1725886.712
1707806.481
1678251.773
1633052.719
997910.5849
996946.3704
985236.2231
969913.1263
944935.0073
590897.6419
588220.0572
583158.8018
573585.7103
564705.6476
357875.7761
358073.8433
355048.2677
349804.863
345380.7402
221056.8481
220417.494
218433.3838
216239.8035
214316.7635
133969.5293
133729.7619
132978.5442
131817.8441
130098.0837
78470.00488
78606.89443
78357.88571
77405.84075
77216.18524
44497.67691
44313.07894
44232.10317
43936.65722
43691.24174
24205.75783
24094.07593
24175.58994
23940.86579
24112.30431
12605.21697
12987.25405
12926.89905
12778.9396
12653.68171
6988.302513
6820.727476
6816.058594
6956.313342
6753.445977
3795.871164
3742.102106
3771.295516
3783.957484
3776.184239
2139.383561
2184.833163
2205.825553
2161.535921
2277.444611
1432.9741
1343.441103
1372.760361
1364.387423
1477.040652
944.6958862
930.5266013
938.5990278
926.1187359
1035.401919
729.4015457
681.8463792
689.5350451
698.8848018
721.0842143
527.4586078
541.0426258
542.0963849
541.9674362
523.0246999
447.2073793
431.1961189
432.8658264
434.3050213
435.7715631
364.4668006
351.5127823
350.2196272
354.5411966
377.1176205
303.6959003
288.3186866
291.3745343
289.1266839
327.4761223
250.206084
244.173682
243.018415
249.7079104
254.7788574
205.6465073
212.2285699
209.7100486
209.3935665
209.7440182
177.7152756
183.0027109
186.3323661
183.4353997
160.6394445
173.5342708
156.3004785
153.8701043
166.6295115
146.5383534
134.4783933
139.4455567
138.3112259
136.8305462
152.4956501
128.5384508
114.3566303
123.6260582
117.3150333
121.0492835
111.5214415
101.0080327
104.0469789
104.7918414
105.1088288
88.28627793
92.24524187
90.99755475
94.24110326
75.22753467
79.14783411
81.59594745
81.06075407
82.94029636
67.71811812
71.7281877
73.08688663
73.47038925
73.65094584
61.88577915
65.82560968
64.76849279
65.11199985
66.16008502
57.26484489
58.23431973
58.1060648
58.15733073
59.37790314
52.53340585
50.63447218
51.66288901
52.72760692
52.83609713
46.8081576
45.87906356
46.46476896
47.16022106
47.34624251
37.911051
42.11046729
41.04728869
41.08733546
42.75729883
35.16336117
35.73400956
37.19941346
35.75539744
36.9997524
35.35887903
32.49799309
31.45338629
31.86276872
31.96305122
31.17352665
29.12656274
29.22614386
29.37042772
29.01422241
28.35618609
25.27758275
24.72211699
25.00506903
24.71738251
24.80201916
26.79155196
26.72199142
26.95361906
26.40035711
26.7175034
18.67316403
18.43585417
18.52389263
18.46391858
18.72589786
2119857.795
43188.95851
-1170523.953
-164173.3465
1038502.714
757943.2191
504298.6506
321624.289
954789.2614
435560.526
-176269.3344
-369469.8835
-932662.4214
188941.8849
495977.9714
323695.2194
-710137.1172
-1109993.789
-3744877.791
-8462714.198
-24458393.43
-19269322.66
-6340684.356
3495504.924
12687264.64
10943658.53
7631214.922
4704042.886
2766839.118
1614279.821
937683.4134
546292.3845
336251.5467
206864.9409
129256.7761
75349.26836
43081.93713
22952.10207
13402.55942
7092.184572
3723.635115
1931.753897
1032.085611
623.0052802
619.507204
642.2814132
455.3016318
288.606171
179.8435951
213.5600747
223.5544641
273.5707278
203.1900138
86.31091177
121.5407823
99.75962479
148.5196496
129.470607
112.838373
92.73910428
77.51954483
69.23961274
78.49604658
63.24565057
39.97316936
34.3096043
32.52086448
24.34939702
25.97269527
17.22153109
-848391.4159
113896.2488
-12926.60923
65673.1854
-7767.899027
705657.4031
557013.7574
-286017.5172
106522.3066
-3406.681247
973942.2325
565208.4998
1647215.566
655422.7584
-7403.890644
2007303.431
1155824.804
752668.5434
349026.5907
-116808.2211
1342138.807
1696270.207
1223517.201
-979678.5159
-156203.0455
1184595.476
1300987.514
1402800.217
16641.11311
394993.9845
827243.6483
424295.3357
169394.9707
251384.9498
760676.6595
343491.0966
-156889.7187
272960.5005
1142556.364
-320555.7607
971109.61
845151.2806
190637.6976
-787113.9114
-335634.7693
508288.6018
578493.7738
-137292.1328
822786.0305
-925361.7519
-44060.98228
-439260.6037
-501807.9192
-49126.90174
-1365627.393
-384314.8442
-702083.0673
-296344.0829
-340528.9251
-1310083.264
-803348.4724
-736410.5532
-347731.0524
-606073.7815
-706660.6272
-165434.477
-238442.1372
-46990.00774
-355857.7876
-1306705.443
613223.9206
677718.068
314865.3362
-433878.2293
-1254441.457
-1039816.41
-1528616.371
-2103717.659
-2058519.152
-2237053.811
-20669.40243
-13587.30864
-647421.4604
-2211775.325
-2125822.673
-1232017.066
-2288575.394
-3271898.611
-4068574.753
-6173978.15
-4322185.938
-7291440.517
-11899088.48
-18095170.02
-24035015
-12143888.33
-21763019.97
-36286212.12
-39299646.51
-6273878.395
-28142728.67
-28691964.72
-18514776.12
-7008095.717
2617739.281
-15809221.27
-9370499.907
-2284542.584
5973081.833
15350454.41
-5298427.194
1203039.038
9623031.511
15092510.01
14116333.19
8497158.855
13400241.44
15123021.48
14553912.3
12057981.51
12882632.21
13765504.26
13453183.92
11948914.46
9663956.889
10904781.81
10638712.79
9827424.756
8525810.869
6943385.99
7469203.264
7107696.313
6468049.216
5618190.638
4655689.037
4636195.101
4376368.342
3980484.414
3483080.886
2937846.552
2733293.749
2578424.23
2353327.559
2080086.154
1782013.443
1576741.529
1492399.838
1370903.854
1224536.439
1065376.067
915200.6526
870651.6601
806554.158
729364.4656
645176.4555
546857.2601
522532.3178
488925.4244
448435.5148
403540.0723
336122.6901
323600.8198
305879.6038
284359.6653
259963.982
209488.188
202762.1959
193624.681
181792.6969
168541.8056
128352.5679
125376.9651
120461.6929
114221.474
106855.866
76310.05824
74817.04828
72446.61212
69100.35896
65194.66514
43482.59718
42940.13358
41732.70204
40135.79476
38051.3412
23988.1473
23741.16501
23227.67273
22431.99236
21454.63714
12822.81751
12829.28105
12648.12201
12264.5302
11832.86265
6903.056682
6939.110468
6857.588149
6705.897828
6506.044961
3827.834345
3852.659049
3801.329843
3766.885573
3668.048623
2256.254529
2245.146808
2232.638795
2219.835038
2178.679475
1432.908213
1409.568042
1413.127269
1398.840135
1396.948449
989.7143946
963.4388044
966.2082567
965.9103349
959.1658202
716.2156484
712.2296788
712.2493879
712.2991323
712.164862
544.7414268
551.0715012
558.2169572
551.7955241
556.9626976
440.4668905
440.3013547
448.3961579
441.9258197
446.3966095
365.4597078
359.615514
364.2086523
360.7421467
364.3863535
306.1293757
296.5950478
299.8391762
299.5159326
300.2108615
251.1560209
250.7382453
250.1507175
253.8573001
251.6694835
211.6098064
212.5678005
215.2264736
214.7392945
215.5932925
176.6187046
185.2511394
186.8812847
186.8349499
187.727653
156.5176459
161.4561184
163.5239848
162.4136787
164.4471916
143.4443058
139.9493941
141.146387
142.248287
142.2710952
120.4613534
121.2840238
122.7905498
123.077867
124.1571164
105.4599052
105.3927387
106.8385063
107.1438876
108.1462311
87.26501048
93.24282827
93.38155772
94.41978603
95.06884698
77.7956963
82.72449375
82.96070911
83.97212658
84.5194112
70.13543071
74.17459109
74.58258866
75.23484243
76.0273595
63.58805955
66.08366032
66.77870555
67.44483458
67.93686434
57.07378064
59.38994358
59.73939564
60.44943271
60.86217595
50.83807765
53.34264816
53.11935972
54.21728498
54.34101989
44.29017777
47.53592445
48.02289148
48.35587727
48.85763528
39.91265515
42.27382458
42.65878422
43.05309651
43.4921605
36.50465812
37.2331618
37.58136339
37.97823787
38.36983033
31.86263494
32.42762894
32.74452348
33.09438826
33.37285413
29.03479199
29.52075681
29.80543301
29.98347821
30.21355208
24.83677717
24.72765771
24.86103451
24.80923032
24.91618861
26.44886856
26.33903918
26.25469089
26.03771447
25.83190703
18.20749988
17.5157401
16.51244099
15.21810766
13.74762983
112.7865098
-3.12744698
-0.6002151775
-0.07899481502
-0.01944342228
-0.009282082896
-0.006071300891
-0.004516946601
-0.003637427628
-0.003037244648
-0.002756646769
-0.002687772497
-0.003057987003
-0.004616925198
-0.005753257885
-0.005637055
-0.005393404405
-0.005112407277
-0.004729312803
-0.004293781588
-0.003721456236
-0.003101898853
-0.002450887036
-0.001823573018
-0.001299580654
-0.0007690158557
-0.0002388114114
0.0002656550491
0.0007259619333
0.001142439381
0.001321225914
0.001423958349
0.001548200329
0.001614621435
0.00160972239
0.001557110659
0.001528668806
0.001483677163
0.001379990251
0.001259964849
0.001142906842
0.001020558166
0.0008930157023
0.0008139799186
0.0006961099784
0.0005491455708
0.0004514553486
0.0003484167617
0.0002704506361
0.0001796729713
0.0001111631397
2.911269549e-05
-1.530516093e-05
-4.444743433e-06
6.263221825e-05
6.770987945e-05
0.0001443793675
0.0002974448723
0.0002676533776
0.08894836474
-39.91160004
-5.82429836
-1.058999205
-0.3059023623
-0.08605293903
-0.04362491479
-0.02915625112
-0.02066444049
-0.01513038426
-0.01101959319
-0.008684814216
-0.007424010911
-0.005920154193
-0.002764691689
0.0001576155214
0.001439539151
0.002262758786
0.002886814166
0.003442609696
0.003946545061
0.004321987181
0.004596167785
0.004731493655
0.004633743204
0.004848555254
0.004900669982
0.004851862106
0.004766876048
0.004636097433
0.004474276822
0.004286820627
0.004076854252
0.003849608412
0.00361685731
0.00331933672
0.003123843159
0.002897093764
0.002651974192
0.002408734538
0.002173543183
0.00195841807
0.001737422713
0.001566603388
0.001388722679
0.00120963211
0.001043317903
0.0008864087857
0.0007540241643
0.0006346485751
0.0005345137708
0.0004483977908
0.0003938506825
0.0003290134056
0.0002435528742
0.0001203978906
0.0001195341848
0.0002953036788
0.0006947485714
0.0004594073767
0.08507227052
-985.7509996
-76.8946942
-4.4841694
-0.7956412885
-0.3030997919
-0.1531568532
-0.1024857362
-0.07469561171
-0.05173633498
-0.03524355483
-0.02350711262
-0.01524208594
-0.009360518692
-0.005967803704
-0.003649586852
-0.002084225766
-0.001090395593
-3.458019869e-05
0.0008841403633
0.001550371236
0.001605551546
0.001460288563
0.001318084106
0.001298713625
0.001082365641
0.0009853032966
0.0009045358605
0.0008279264375
0.0007580481255
0.000694213989
0.0006415853363
0.0005989245657
0.0005640863545
0.0005380353786
0.000524555216
0.0005120001936
0.0004678202825
0.0004196663004
0.0003716780152
0.0003257195643
0.0002886879944
0.0002536106318
0.0002206231057
0.0002127633268
0.0002008720616
0.0001808438084
0.0001599157815
0.0001440403646
0.0001263397078
0.0001071695082
8.875137183e-05
7.04373669e-05
5.037929542e-05
3.116529393e-05
3.204104433e-05
0.000102980781
0.0002529636137
0.0003885626354
-0.001080324836
0.0819984716
-28428.25884
-1485.967049
-46.452531
-4.238810932
-1.081744245
-0.4413065863
-0.28594426
-0.1940527979
-0.134765792
-0.09567844856
-0.06772613469
-0.0474889594
-0.03339066153
-0.0248557228
-0.01958321148
-0.01628080257
-0.01346272734
-0.01111954018
-0.009304995628
-0.008004153998
-0.006852064541
-0.005851627544
-0.005029368133
-0.004328661445
-0.003649696373
-0.003052373266
-0.00256442357
-0.002161148855
-0.001816272098
-0.001518303865
-0.001247490345
-0.0009941983475
-0.0007859419222
-0.0006236124444
-0.0004939616967
-0.0003963882369
-0.0003183028204
-0.0002657965961
-0.0002410450455
-0.0002816473473
-0.0002379782576
-0.0001898423943
-0.0001464523007
-0.0001417858027
-0.0001310230923
-9.673994761e-05
-5.973966776e-05
-2.788844089e-05
-4.029884415e-06
1.121168484e-05
2.118164167e-05
2.528465152e-05
2.821799852e-05
2.559975649e-05
4.354328406e-05
7.483411578e-05
0.0001562758889
-0.0002085692247
-0.005367800587
0.0785667052
-17616.30506
-2809.310796
-410.3780716
-54.71785624
-6.702180536
-1.446394061
-0.778302612
-0.4942858403
-0.3325117712
-0.2275111703
-0.1550860261
-0.1059336006
-0.07372183271
-0.05324637678
-0.03985689015
-0.03028089108
-0.02385105042
-0.01969671588
-0.01690626107
-0.01475960915
-0.01280126357
-0.01109866861
-0.009660660425
-0.008428471191
-0.007439839176
-0.006611975147
-0.005873758769
-0.005204726824
-0.004598171636
-0.004048454153
-0.003556640514
-0.003114895885
-0.002718286593
-0.002360567466
-0.002027218747
-0.001721893816
-0.001442367134
-0.001170559905
-0.0009240801538
-0.0006622989369
-0.0005150569098
-0.0003883812463
-0.0002904303013
-0.000178417891
-0.0001066069807
-2.339975505e-05
1.000362403e-05
3.188889592e-05
4.634751487e-05
5.513190282e-05
5.912927372e-05
5.522398401e-05
4.942841965e-05
3.789203903e-05
2.026630024e-05
2.131086043e-05
-6.020666792e-05
-0.001105295459
-0.01025270215
0.07647033805
101648.1435
8174.43521
-886.9506615
-396.8563202
-38.68424931
-4.854524424
-1.419408606
-1.078954305
-0.7731992084
-0.5339141703
-0.3545103077
-0.2324314511
-0.1511691822
-0.09808845111
-0.06404452517
-0.04372508732
-0.03158917718
-0.02394604836
-0.01890268577
-0.01531616914
-0.01263525648
-0.01057619171
-0.008908420137
-0.007511916089
-0.006384394936
-0.005462657693
-0.004646641013
-0.003964658298
-0.003399113594
-0.002897605343
-0.002460776014
-0.002098651567
-0.001785705989
-0.001509228125
-0.001263899018
-0.001052368576
-0.0008689762906
-0.0007133036344
-0.0005777980878
-0.0004539181095
-0.0003427414582
-0.0002527510483
-0.0001956395395
-0.0001505698681
-7.82619705e-05
-5.344005919e-05
-1.502739882e-05
2.433063333e-06
1.025655362e-05
2.332485527e-05
2.381444133e-05
2.165491154e-05
1.51473335e-05
6.949642717e-06
-1.690390085e-05
-9.145874137e-05
-0.0004335403628
-0.00206456564
-0.01237236056
0.0734488082
153863.0915
29471.92985
809.6834007
-3133.209396
-369.949273
-13.43522188
-1.868994458
-1.574900983
-1.178688975
-0.7991552744
-0.5330478589
-0.349882221
-0.2261746598
-0.1457117664
-0.09525055172
-0.06455875915
-0.04570556837
-0.03372682226
-0.02616961016
-0.02103470876
-0.01715679406
-0.01416728747
-0.01181523444
-0.00989428766
-0.008336943521
-0.007058548611
-0.00598737027
-0.005104997762
-0.004344948636
-0.003697939737
-0.003161982203
-0.00269348319
-0.002291083001
-0.001953161735
-0.001659155173
-0.001407326239
-0.001189703887
-0.001003870861
-0.0008408427859
-0.000698114327
-0.0005707339844
-0.0004452842912
-0.0003286874199
-0.0002424315445
-0.0002256904043
-0.000207738877
-0.0001667636416
-0.0001214744589
-9.023578371e-05
-6.658632168e-05
-5.699008471e-05
-4.863168414e-05
-5.169747032e-05
-8.218610921e-05
-0.0001023989432
-0.0002836275273
-0.001057201127
-0.002907100982
-0.01233843962
0.05770790158
-53339.75799
-50881.24486
-34796.67546
-21956.00992
-3556.864991
-64.20805832
10.03247583
1.546612615
-0.7305652047
-0.7835932374
-0.5924546845
-0.4035640149
-0.2642807901
-0.170610328
-0.1117888043
-0.07592301275
-0.05400963061
-0.04069172594
-0.0321929622
-0.02605759779
-0.02155624798
-0.01802746331
-0.01515453222
-0.01280870555
-0.01081737205
-0.009176645544
-0.007816882845
-0.006670982117
-0.005695598999
-0.004874886704
-0.004178533965
-0.003574965003
-0.003069259462
-0.002629682365
-0.002251401141
-0.001932392709
-0.001653877027
-0.001415270131
-0.00120407577
-0.001021324106
-0.0008606330348
-0.0007324052971
-0.000605644297
-0.0004602016962
-0.0003588090706
-0.0002979263521
-0.0002807009087
-0.0002584463162
-0.0002158356725
-0.0001691204309
-0.0001444208951
-0.0001316494721
-0.0001390727885
-0.0001373658491
-0.0002096303895
-0.0005185353244
-0.001237974803
-0.003445749672
-0.01098964579
0.08101883561
-322004.7632
-105172.7114
-56210.97923
-43389.2706
-16289.92495
-364.6041598
152.2325127
20.61182017
3.521204182
0.1059496617
-0.3449132137
-0.3202960858
-0.2266831676
-0.1506386255
-0.09911366994
-0.06874814515
-0.05135724086
-0.04109708967
-0.03429293137
-0.02920396583
-0.0249627783
-0.02126751346
-0.01814990478
-0.01546803063
-0.01318548465
-0.01125061595
-0.009591760156
-0.008200457921
-0.007020387391
-0.006017269056
-0.00516507382
-0.004440170856
-0.003825976581
-0.003295675511
-0.002841177812
-0.002451552587
-0.002110086404
-0.001815311984
-0.001556919788
-0.00133536373
-0.001139970605
-0.0009747565928
-0.0008512556036
-0.0007452917616
-0.0006069279941
-0.0004681412641
-0.0003804221143
-0.0003259024094
-0.0003065220571
-0.0002842023636
-0.0002581759025
-0.0002365784375
-0.0002236526459
-0.0002148190802
-0.0003265710724
-0.0005645009302
-0.001073820594
-0.002453124993
-0.007676982345
0.07387971182
-53929.40469
-57516.4155
-101601.222
-97870.0943
-35365.96421
3545.869961
1606.051326
119.8350477
17.20916177
2.94429745
0.5798763333
0.04447920155
-0.05349455752
-0.05774010428
-0.04254606169
-0.0340191847
-0.03108812035
-0.0310425235
-0.03028429559
-0.02852765932
-0.02623315541
-0.02354718756
-0.02068056887
-0.01789519635
-0.01541188081
-0.01323098396
-0.01131251871
-0.009672500928
-0.008291645039
-0.007116058792
-0.006115740503
-0.005264867971
-0.004541334734
-0.003923249142
-0.00338901135
-0.002929123644
-0.002530941048
-0.002185188574
-0.001888134942
-0.00162839709
-0.001404904494
-0.001210870496
-0.001043736992
-0.0009006614672
-0.0007891763192
-0.0006888778796
-0.0005643671724
-0.0004509262385
-0.0003830175202
-0.0003391293606
-0.0003144997411
-0.0002855405899
-0.0002810075189
-0.0002944198604
-0.000406720891
-0.0005870065342
-0.0009534398147
-0.001770382514
-0.005598639426
0.04351931818
-278437.6856
-382885.8499
-197934.5843
-161977.2688
-66908.50519
15598.52253
8914.487717
554.9792197
51.65082907
10.79592521
2.824199359
0.8983033672
0.3341049104
0.1487974303
0.07608369262
0.04029297927
0.01421828243
-0.004457688171
-0.0160673563
-0.02212972155
-0.02426443254
-0.02414533121
-0.02250048986
-0.02011432331
-0.01757600072
-0.01520259228
-0.01305607609
-0.01118802958
-0.009591286029
-0.008224890451
-0.007063912816
-0.006071457092
-0.005226667705
-0.004504947571
-0.003890063728
-0.003362751958
-0.002916398111
-0.002525333313
-0.002191940291
-0.001898019938
-0.001647612741
-0.001426427867
-0.001237707882
-0.001068163554
-0.0009262476736
-0.000806034731
-0.0007164809355
-0.0006266250403
-0.0005301679085
-0.0004384756908
-0.0003869616819
-0.0003409009687
-0.0003532452535
-0.0003763487378
-0.0004862233103
-0.0006352255497
-0.0009296153888
-0.001396042469
-0.003415307744
0.04847948277
-34946.6635
-503472.5755
-355954.0276
-255603.6175
-76623.00547
64224.92469
32920.96556
3331.634865
227.2685345
33.33264925
7.647861214
2.47342934
1.016304096
0.5081625798
0.2841949113
0.1689444846
0.09380600688
0.04504058513
0.01519055831
-0.004548847271
-0.01655515689
-0.02149553624
-0.0224385468
-0.02137488458
-0.01938338287
-0.01707705696
-0.01478848698
-0.01271832891
-0.01091291779
-0.009352108508
-0.008019979322
-0.006882605562
-0.005915957812
-0.005088732489
-0.004385622518
-0.00378901525
-0.003280541004
-0.002849536549
-0.002472210597
-0.002150621312
-0.001867249642
-0.001622568514
-0.001409974764
-0.001223704831
-0.001067199242
-0.0009306855294
-0.0008203472761
-0.0007215565678
-0.0006453771805
-0.0005689335599
-0.0005126531993
-0.0004709834125
-0.0004490692136
-0.0004748050868
-0.0005661601439
-0.0006974981534
-0.0009905978354
-0.001289431547
-0.00220845443
0.05113672028
-11951.85994
-644557.8789
-531923.5871
-335682.6803
-80454.31276
133445.2047
81399.20924
11423.55636
822.1504614
85.64270975
16.54813895
5.063722945
2.094775963
1.063804345
0.6059404171
0.3662729961
0.2214277825
0.1211054758
0.06184520271
0.02719678386
0.00162548055
-0.01296621797
-0.01884487576
-0.02064870214
-0.02016471355
-0.01836313945
-0.01624180449
-0.01409831185
-0.01211891494
-0.01038814696
-0.008896810483
-0.007626809856
-0.006546338265
-0.00562556343
-0.004843207147
-0.004182474846
-0.00361759194
-0.003140999394
-0.00272799839
-0.002377169301
-0.00206770127
-0.001801075451
-0.001573370385
-0.001374617912
-0.001206708031
-0.001051438767
-0.0009238611777
-0.0008108653426
-0.0007220990973
-0.0006383669184
-0.0005869544822
-0.0005359554483
-0.000524961296
-0.0005436088514
-0.000620769051
-0.0007381961748
-0.0009451525255
-0.001009720622
-0.001011452047
0.0524544725
-1353993.593
-1122559.013
-1027315.196
-714769.2461
-73022.02773
297308.5643
173227.0978
31275.15004
2781.934284
244.6546306
38.73464729
9.988547227
3.868763468
1.927209883
1.089170207
0.651352318
0.4008830376
0.2368231668
0.1340202957
0.07534651355
0.03182788041
0.0031409724
-0.0105159692
-0.0171110621
-0.01913366008
-0.01868569386
-0.01710267831
-0.01509326161
-0.01308475051
-0.01123551858
-0.009612232712
-0.008215045983
-0.007032403552
-0.006032837139
-0.005195118791
-0.004483484119
-0.003880702095
-0.003363962006
-0.002928395821
-0.002550833752
-0.002231308681
-0.001950468192
-0.001715440993
-0.001502652787
-0.001323282997
-0.001154969504
-0.001020659832
-0.0008973663338
-0.0008093838817
-0.0007125675597
-0.0006621143547
-0.0006092056726
-0.0005949893533
-0.0006089457048
-0.0006744628352
-0.000756850495
-0.0008677593309
-0.0005996046425
0.0007673330907
0.05258835399
-2509119.031
-2838980.152
-2177474.167
-951251.9966
378117.7383
742571.0627
323431.0407
65024.23374
8112.26353
744.2255311
88.14436743
18.7305138
6.5747133
3.105582245
1.694570457
1.00765709
0.6193952334
0.3746265363
0.2289245775
0.139020469
0.07044730456
0.02631584125
0.002438611469
-0.0102127267
-0.01578378009
-0.01744046558
-0.01694270456
-0.01543131798
-0.0135914077
-0.01174517678
-0.01006744414
-0.008609523372
-0.007363722317
-0.006311621801
-0.005424445147
-0.004674471704
-0.004042280803
-0.003506748566
-0.003054286042
-0.002668170468
-0.002341008524
-0.002057171447
-0.001814320374
-0.001596342039
-0.001412794944
-0.00124216536
-0.001110539508
-0.00097650227
-0.0008782306877
-0.000779749548
-0.0007343796964
-0.0006796473085
-0.0006740308224
-0.0006702928496
-0.0007261738469
-0.000781934435
-0.000832135529
-0.0003225583333
0.00217516485
0.05108403801
-3380186.992
-3335198.817
-2101458.962
382353.0961
2127331.535
1499685.521
463112.9957
103480.0598
17964.04624
2173.065205
214.1303082
35.71708953
10.49479051
4.588942491
2.387370732
1.351322991
0.8038037213
0.5240809293
0.3410651983
0.2026209249
0.1088560309
0.05222953099
0.01891005156
-0.0004490028453
-0.01023382672
-0.01437528618
-0.01541360553
-0.01474669341
-0.01333319638
-0.0117028072
-0.0101221828
-0.008692942669
-0.007444924058
-0.006382510925
-0.005483218156
-0.004728204538
-0.004092052402
-0.003558297398
-0.003108828834
-0.002725511128
-0.002402584755
-0.002119187049
-0.001878889941
-0.001661604896
-0.001476089647
-0.001309959039
-0.001173820406
-0.001042017598
-0.0009413567366
-0.0008413652754
-0.0007959606044
-0.0007379976112
-0.0007337658514
-0.0007233204853
-0.0007645893286
-0.0007768698388
-0.0007088433543
0.0001426401134
0.003651619891
0.04912721083
-4961008.034
-3729746.189
-191500.6492
4218596.176
4234622.694
1884416.188
502643.4316
121928.4296
29938.14018
5066.409773
516.4151269
61.94991298
15.36169208
6.145256785
3.035149957
1.716125854
1.053786478
0.6668436391
0.4205734053
0.2569860769
0.1488389681
0.08002192324
0.03689359462
0.01163851924
-0.002367702946
-0.009420219487
-0.01227866245
-0.01277560626
-0.0120909703
-0.01090758499
-0.009581154784
-0.00830330968
-0.007156187952
-0.006164345541
-0.005315039034
-0.00460378224
-0.004003862594
-0.003500329034
-0.003074602509
-0.002711749109
-0.002403811606
-0.002132285778
-0.001899171934
-0.001692526432
-0.001517169929
-0.001354722543
-0.001220480613
-0.001089658015
-0.0009903419118
-0.0008937301943
-0.0008503553131
-0.0007919450623
-0.0007865958078
-0.000771142733
-0.0007988326784
-0.0007617602592
-0.0005620494839
0.0006436865223
0.005117235364
0.04781936917
-5928230.361
-2916671.315
5446978.836
9253068.411
6149886.161
1809103.994
405514.0983
107091.0507
39359.3895
9022.057596
1002.399921
93.8156231
16.87347318
7.241260207
3.685256332
2.035287032
1.1772764
0.7370497677
0.4704740438
0.2937097723
0.1765611626
0.1006192732
0.05246473049
0.02317873303
0.006106847234
-0.003226784195
-0.007764814464
-0.009514981318
-0.009718114975
-0.00916738789
-0.008294928917
-0.007329693739
-0.00641593369
-0.005594523962
-0.004883704659
-0.004271418976
-0.003756824116
-0.003319578105
-0.002945309417
-0.002621259093
-0.00234212469
-0.002096185278
-0.001884357525
-0.00169299586
-0.001527553002
-0.001373346074
-0.001245375159
-0.001121459723
-0.001025972957
-0.0009359862824
-0.0008916812124
-0.0008315710071
-0.0008252716206
-0.0008075099346
-0.0008250883357
-0.0007586809646
-0.0004972752081
0.0008532050496
0.005678563015
0.04583687567
-14517945.66
8060953.934
19924559.78
11638537.44
3373875.809
798585.7287
203528.563
65815.89864
30741.85437
10060.855
996.2274417
-11.89169248
0.8095730457
3.318958219
3.47089938
2.101265778
1.254774744
0.7754506052
0.4935475033
0.3139209706
0.1925965624
0.1139689569
0.06364402355
0.03271323558
0.01419161494
0.003563522477
-0.00225832685
-0.005171029473
-0.006389758728
-0.006602991209
-0.0063259298
-0.005827689667
-0.005266775835
-0.004713641215
-0.004208417716
-0.003757833915
-0.003363867605
-0.003015821714
-0.002717175769
-0.002452447896
-0.002223657303
-0.002015519049
-0.001832976236
-0.001663454848
-0.001514736628
-0.001373647167
-0.001254517036
-0.001140898876
-0.001050939665
-0.0009693775529
-0.0009237995975
-0.0008641238672
-0.0008576115699
-0.0008301741802
-0.0008262808489
-0.0007153427105
-0.0003652285507
0.001138667092
0.005966480854
0.04351400974
9385227.758
25633380.27
8416815.984
4433692.539
1328447.376
341674.9409
54881.84194
16551.50664
8238.516061
4183.408738
343.9540896
-386.405528
-139.2398088
-14.01484909
-1.059407579
1.494150467
1.202323684
0.8071883957
0.5130240661
0.3222705695
0.1991182231
0.1203032596
0.07077558996
0.03967519507
0.02098754363
0.00995978792
0.003276028931
-0.0004627137237
-0.002459321246
-0.003429565843