/*--------------------------------*- C++ -*----------------------------------*\
  =========                 |
  \\      /  F ield         | OpenFOAM: The Open Source CFD Toolbox
   \\    /   O peration     | Website:  https://openfoam.org
    \\  /    A nd           | Version:  10
     \\/     M anipulation  |
\*---------------------------------------------------------------------------*/
FoamFile
{
    format      ascii;
    class       volScalarField;
    location    "0.0250188088";
    object      ddt0(rho,CH2(S));
}
// * * * * * * * * * * * * * * * * * * * * * * * * * * * * * * * * * * * * * //

dimensions      [1 -3 -1 0 0 0 0];

internalField   nonuniform List<scalar> 
5170
(
2.093571367e-11
2.093565605e-11
2.093542353e-11
2.094240963e-11
-4.099892563e-13
2.092995334e-11
2.092988814e-11
2.093004781e-11
2.092755243e-11
2.098409064e-11
2.093835771e-11
2.093859596e-11
2.093890118e-11
2.093957481e-11
2.093203281e-11
2.093871682e-11
2.093900874e-11
2.093940045e-11
2.093999465e-11
2.0940855e-11
2.093873971e-11
2.093907132e-11
2.093952685e-11
2.094009535e-11
2.094138887e-11
2.093877849e-11
2.093914954e-11
2.093965258e-11
2.094021974e-11
2.094158342e-11
2.093882841e-11
2.093923349e-11
2.093977862e-11
2.094034876e-11
2.094179187e-11
2.093887931e-11
2.093931875e-11
2.093990127e-11
2.094046952e-11
2.094197526e-11
2.093890191e-11
2.093937146e-11
2.093997133e-11
2.094054018e-11
2.094211098e-11
2.093893076e-11
2.093941097e-11
2.094000375e-11
2.094057029e-11
2.094220103e-11
2.093896227e-11
2.093944603e-11
2.094001471e-11
2.0940581e-11
2.094226537e-11
2.093899518e-11
2.093947911e-11
2.09400181e-11
2.094058777e-11
2.094231655e-11
2.093901347e-11
2.093949406e-11
2.094002151e-11
2.094059019e-11
2.094235673e-11
2.093902098e-11
2.093949822e-11
2.09400209e-11
2.094058461e-11
2.094238815e-11
2.093903866e-11
2.093950722e-11
2.094000994e-11
2.09405741e-11
2.094241186e-11
2.093904411e-11
2.093950064e-11
2.093998373e-11
2.094055458e-11
2.094241051e-11
2.093906759e-11
2.093951368e-11
2.093995041e-11
2.094051156e-11
2.094236329e-11
2.093907782e-11
2.093950233e-11
2.09398999e-11
2.094044988e-11
2.094223827e-11
2.093906185e-11
2.093946002e-11
2.094409897e-11
2.094294712e-11
2.093294434e-11
2.094219471e-11
2.151906364e-11
-9.986154491e-12
4.033368616e-12
-6.485109119e-12
7.650376236e-17
7.525854175e-17
7.867089615e-17
6.253361878e-17
-6.250491254e-17
2.07492135e-17
-5.241789601e-18
3.272073133e-18
-8.202118176e-19
-6.597931177e-17
1.037394481e-18
-2.715656764e-17
-2.065625528e-17
1.186058213e-17
-4.88449103e-18
-4.034251724e-18
7.007158176e-18
-9.27232706e-18
-5.051533103e-18
2.682750145e-16
-2.020483789e-14
-2.423270846e-16
8.046599918e-17
-1.270029685e-17
-1.972059579e-14
1.570807149e-13
1.690277669e-13
-3.157332002e-14
2.015494269e-13
-2.075223814e-11
-2.545186918e-11
1.786575449e-11
4.534742663e-13
3.8428965e-11
1.913384317e-09
8.071482946e-09
-8.995515309e-11
4.162937678e-11
5.792926229e-09
-4.046920153e-09
1.824445803e-09
2.171999698e-09
8.091658918e-09
-1.31422359e-09
-4.435864334e-09
1.221325659e-10
-5.526832296e-09
-3.584915087e-09
1.854507016e-09
-2.362716816e-10
-1.106247839e-10
-2.076658729e-09
-1.155599715e-09
1.76430616e-09
-2.189672926e-10
-3.73478348e-10
3.886823175e-10
-4.686975391e-09
-3.25618804e-10
-7.926195416e-10
-7.081925584e-10
-2.328358617e-10
-3.80703973e-11
1.466298109e-12
-1.285898636e-09
-1.004216391e-09
-3.00140036e-10
-2.980408267e-10
-7.796443905e-10
-1.542250227e-09
-1.541457409e-09
-8.762475403e-10
-6.898739081e-10
-1.350077878e-09
-2.431145252e-10
-8.534006313e-10
-1.392258902e-09
-1.241016535e-09
-1.834010794e-09
-8.969206771e-10
-1.917710742e-10
-1.791106475e-09
-1.769028126e-09
1.272897381e-10
1.093325187e-09
-8.337068495e-10
3.716969412e-11
1.394046275e-12
-8.96370392e-10
9.768626899e-09
8.056390395e-10
-7.4008451e-10
-6.391066465e-10
4.987551281e-10
-9.973201711e-09
-2.461788057e-07
-1.025043556e-08
-2.84128679e-09
4.060188348e-10
-1.989937801e-09
4.784227364e-12
1.048574027e-12
-1.14842145e-11
-4.047165652e-09
1.161372501e-08
2.655530039e-12
2.111556554e-12
-1.762859933e-11
3.923898676e-10
-1.530449237e-09
-3.655971476e-12
5.968966188e-13
1.396282666e-09
-1.094537601e-11
-4.148580887e-10
2.710509532e-12
-1.983917539e-11
-2.971845543e-10
-1.514794517e-10
-2.166163967e-09
5.182121039e-12
-1.570775151e-11
-5.837292769e-11
-1.993466819e-09
-2.776165977e-08
-1.465766658e-11
-1.6964034e-11
-2.976080464e-11
4.054915354e-10
4.010313201e-09
-1.069556662e-11
-1.460620705e-11
1.180176518e-11
1.351431632e-10
4.871924092e-09
-3.131133757e-12
1.196968753e-09
1.361327264e-11
6.597836863e-10
3.451005001e-09
-2.086057325e-11
-2.682550132e-10
-7.41042919e-11
-5.748575424e-11
3.835237596e-09
-5.256896756e-12
-3.271675536e-11
-1.43540331e-10
-1.163636775e-09
-5.070933579e-09
-9.54360199e-12
-7.264937012e-11
-8.308169034e-10
-4.541110828e-09
8.110416035e-09
-3.680306899e-12
-2.757600954e-11
-3.179176588e-10
-3.580702733e-09
-3.009264556e-08
7.548547991e-11
7.548198797e-11
6.558895562e-10
2.894553408e-09
-4.240884375e-09
-2.749036828e-12
5.249311058e-11
4.905123197e-10
3.037759266e-09
1.190467478e-08
2.164068369e-11
1.306589483e-10
7.878425202e-10
3.969878803e-09
2.228443073e-08
-9.754606847e-12
-5.774577219e-11
-2.302014064e-10
-2.352465225e-10
4.118407579e-11
-2.905426694e-10
-1.206400955e-09
4.817511133e-10
-4.470535911e-09
-6.052333055e-08
-9.16799196e-10
-3.749008395e-09
-2.050977343e-08
-2.268991349e-08
-3.706270061e-08
1.609677979e-09
1.274746391e-08
-5.188932453e-09
3.553459321e-08
5.603564865e-08
2.05662522e-09
3.357330382e-09
7.37277319e-09
3.948324218e-08
1.88848726e-07
1.927233541e-09
3.760426953e-09
1.051563145e-08
3.466239267e-08
1.214398566e-07
2.135614472e-09
3.559716976e-09
7.79298342e-09
1.830185233e-08
4.438659612e-08
1.364711259e-09
1.980326958e-09
3.615306872e-09
6.98876214e-09
1.355897334e-08
8.746822574e-10
9.666350721e-10
5.298389416e-10
1.896664005e-09
3.305951802e-09
1.398754265e-10
1.817470329e-10
3.605206414e-10
2.937741808e-10
6.48253065e-10
3.558564812e-11
3.516453027e-12
1.37223627e-11
8.898844367e-11
9.110889382e-11
5.919830099e-12
6.002912285e-12
5.853077462e-12
1.028177348e-11
8.537344601e-12
1.032402119e-12
1.326786463e-12
1.00415364e-12
1.421432472e-12
1.553623639e-12
2.66577442e-13
1.96873997e-13
2.176796399e-13
2.02257518e-13
-5.254509744e-14
5.738441181e-14
5.23030384e-14
2.855841686e-14
1.125452281e-14
-2.010603791e-14
8.059611342e-14
9.765304378e-14
1.020845205e-13
4.224177479e-14
6.301142405e-14
9.468437843e-16
1.394435502e-15
2.384433748e-15
2.863672978e-15
2.901522413e-15
-2.001962058e-16
-1.738941253e-16
1.657129166e-16
2.324873315e-16
2.588579855e-16
1.920399623e-17
1.909568386e-17
1.871677749e-17
1.597549931e-17
1.464054029e-17
-4.645794616e-17
-4.381633438e-17
-4.93085747e-17
-5.599070407e-17
-6.713747957e-17
-9.090378561e-17
-9.460131709e-17
-1.037377033e-16
-1.156218092e-16
-1.200377947e-16
-8.874934633e-17
-9.080816426e-17
-9.65733421e-17
-9.847962551e-17
-1.061847417e-16
-1.326826295e-16
-1.398321031e-16
-1.639207645e-17
-1.754493229e-17
-2.806073259e-17
2.891739437e-17
2.97796087e-17
3.590326359e-17
4.840496123e-17
-1.369213563e-18
1.156542177e-17
1.325397331e-17
-1.389328554e-16
-3.133076826e-17
3.612928821e-17
3.011953277e-16
3.070721441e-16
3.104512084e-16
2.821919411e-16
1.02321745e-16
-2.321691648e-16
-1.995121631e-16
-1.49737158e-16
-1.780279904e-16
-5.293622992e-17
-1.842793611e-17
-7.349800217e-18
-4.957645678e-17
1.530143795e-17
4.761433752e-17
-1.349582966e-16
-1.188912131e-16
-1.083479091e-16
-1.181906195e-16
-1.614582744e-16
-3.361092077e-16
-3.450068386e-16
-1.423313277e-16
-6.996313221e-17
5.09815254e-16
4.374385563e-16
4.691514378e-16
5.48294685e-16
7.170656094e-16
5.835718651e-16
3.668230839e-16
5.177579693e-16
2.914700295e-16
4.568140519e-16
3.075071098e-16
-9.451991974e-17
-9.814253517e-17
-9.713353119e-17
-9.382234432e-17
-5.438950189e-17
-3.191133203e-17
-3.131618932e-17
-2.901086384e-17
-2.644965866e-17
-1.782476977e-17
-1.60311513e-17
-1.579314412e-17
-1.584736599e-17
-1.623335659e-17
-1.966432496e-17
-1.009956986e-16
-1.222899147e-16
-6.788143008e-17
3.045211309e-16
3.653887321e-16
2.446650969e-16
2.396746632e-16
2.455913472e-16
2.616068954e-16
3.072075783e-16
4.611634645e-16
4.601433991e-16
4.595481832e-16
4.637604287e-16
4.822021257e-16
4.918849614e-16
4.846963882e-16
4.683337013e-16
4.422502232e-16
4.043722302e-16
-5.362043683e-19
-2.840935596e-19
2.100277257e-18
2.237001899e-18
-1.915697362e-18
4.991341594e-17
4.824651308e-17
2.585073402e-17
1.197056435e-17
-7.72619722e-17
-3.446804307e-16
-3.477678224e-16
-3.452221959e-16
-3.224244693e-16
-2.932554153e-16
-3.195603583e-16
-3.299029484e-16
-3.332122924e-16
-3.002430207e-16
-2.675475192e-16
-3.313578248e-16
-3.329270377e-16
-3.276050946e-16
-3.024496882e-16
-2.731583976e-16
-1.931893838e-15
-1.932203827e-15
-1.910928904e-15
-1.857454314e-15
-1.748001138e-15
-1.428766546e-15
-1.734521012e-15
-1.528761524e-15
-1.630617423e-15
-1.347965527e-15
-3.009523623e-15
-3.047753873e-15
-3.076731783e-15
-2.983115621e-15
-2.56789255e-15
4.015405709e-17
4.396206676e-17
-3.947921683e-17
-9.129290567e-16
-6.322929793e-15
3.511110046e-15
3.630493211e-15
3.796007051e-15
3.855363046e-15
3.561341328e-15
3.571277945e-15
3.709000268e-15
3.910461036e-15
4.036401066e-15
3.864738968e-15
4.095099644e-15
4.229503659e-15
4.402454668e-15
4.426465055e-15
4.025906317e-15
-8.947988339e-15
-8.833057313e-15
-8.767978508e-15
-8.365539766e-15
-8.138738451e-15
-1.68047996e-14
-1.659430553e-14
-1.628136783e-14
-1.614165641e-14
-1.680274186e-14
-2.238168777e-14
-2.202218628e-14
-2.156721883e-14
-2.14580293e-14
-2.295123449e-14
-2.183453423e-14
-2.147125241e-14
-2.106770629e-14
-2.103229195e-14
-2.250864888e-14
1.213321964e-07
-3.158011957e-09
-2.403836376e-09
-2.448979156e-08
4.01183528e-09
-1.726071373e-07
1.175031089e-07
-1.1143123e-08
2.292175604e-08
-7.164173056e-09
1.529465713e-07
-9.857058907e-08
-7.908481867e-08
1.341020969e-08
-1.566434084e-08
-2.791125399e-08
-6.531026724e-09
-1.691122416e-07
-1.065269383e-07
6.050570875e-07
3.336368373e-07
9.083054537e-08
2.221280402e-08
4.930436098e-09
1.047531274e-09
1.071182467e-10
1.467736143e-11
1.751372095e-12
-5.825191076e-13
-6.100483842e-14
1.938461536e-14
1.977129954e-15
2.509823223e-16
1.445530034e-17
-5.656361413e-17
-1.065291707e-16
-1.263986855e-16
-6.626621187e-17
-6.24913063e-20
3.196357016e-16
-5.762946225e-16
-1.620675874e-16
5.045019009e-17
-2.707312842e-16
3.827674298e-16
5.451928389e-18
-5.859892725e-16
-1.223685832e-16
-1.47384814e-17
3.871197156e-17
3.797619611e-16
3.440538315e-16
4.920061637e-16
3.629209588e-16
-9.285288724e-18
-4.300941179e-16
-3.826841672e-16
-3.637725929e-16
-3.776185292e-16
-1.472270715e-15
-9.421606561e-16
-2.102060489e-15
-5.440753707e-15
3.421779986e-15
3.810297495e-15
3.703599304e-15
-8.115917338e-15
-1.771469188e-14
-2.385449306e-14
-2.324917841e-14
-6.311010433e-08
-2.804475245e-09
-2.356916549e-10
-7.989075267e-10
-1.65958531e-10
-3.702051899e-08
6.229006497e-08
-2.989600765e-08
-1.968083611e-10
2.998350862e-11
-3.876598772e-09
-2.772630666e-08
-1.446223246e-08
1.250218467e-09
2.304509902e-10
-3.271140023e-08
-5.48265094e-07
-6.914887704e-06
-1.609761556e-07
-3.803497938e-08
-1.373541493e-07
-6.930510058e-07
-1.582628219e-05
-7.747945891e-07
-2.429672515e-08
1.237247811e-07
2.313683892e-06
2.080976772e-05
1.748519487e-06
1.078553526e-08
4.012173844e-09
1.456530631e-07
-1.89445699e-06
2.673590988e-07
3.642550636e-08
7.791349543e-09
3.870439372e-07
7.806630193e-06
-4.992734045e-06
-5.785276196e-07
7.65572978e-08
-1.537497251e-07
-9.886254985e-06
-0.0001369701848
-8.75790545e-06
2.073938123e-08
7.553055629e-07
6.969744752e-06
8.588757324e-05
5.947738697e-06
-2.674004261e-07
2.655383096e-08
-8.371526666e-08
3.381608284e-06
5.5724077e-07
1.365278274e-07
-1.632531836e-07
4.282671211e-07
1.451754167e-05
-6.878816047e-05
1.061871196e-07
-2.221875069e-06
-9.124507035e-08
1.023870608e-06
-6.64232303e-06
1.437183532e-08
9.4194653e-07
1.238449925e-07
3.949452591e-07
-7.057141482e-09
4.676756814e-08
1.021119317e-06
9.2779957e-08
2.67500098e-07
2.087104809e-06
-2.139308974e-07
8.940939947e-07
6.262655753e-10
1.124770974e-07
1.010500869e-05
1.78505602e-07
-7.396037981e-07
-2.640047137e-07
-2.256364884e-06
-2.271173588e-05
-1.53423358e-07
-4.794559246e-07
-2.030505172e-06
-8.21597285e-06
-3.657263027e-05
-2.649955865e-07
-1.058596216e-06
-3.23874358e-06
-3.835677203e-07
0.0001207369963
1.680385181e-06
7.216508953e-06
7.06646764e-06
-0.0002389105526
-0.003106082005
9.29392737e-07
4.504953338e-06
1.687732159e-05
3.78437131e-05
-8.833422277e-05
2.074740167e-07
8.200970883e-07
2.848371482e-06
7.375369194e-06
4.527721203e-06
4.039225614e-08
1.139057857e-07
3.192115322e-07
7.581815038e-07
8.387108052e-07
7.979536508e-09
1.655476787e-08
3.359125272e-08
6.369094784e-08
7.390587952e-08
1.433569178e-09
2.467448801e-09
3.816322707e-09
5.503763688e-09
5.748122e-09
1.839002455e-10
2.817371343e-10
3.791982373e-10
4.354189078e-10
3.941804276e-10
2.158618993e-11
3.391473716e-11
3.686138407e-11
4.228369501e-11
3.901178894e-11
2.127268099e-12
3.975074891e-12
4.85484252e-12
1.827140331e-12
4.959948542e-13
-1.09785257e-12
-4.100874991e-15
3.993429994e-14
3.228076716e-13
1.569454778e-13
-1.205004371e-13
3.172401964e-13
-1.648245328e-13
1.261687859e-14
-3.643512953e-14
-1.654220289e-15
1.023817439e-14
-7.035866867e-15
1.614254579e-15
-7.707761828e-16
1.359613999e-15
1.049669145e-15
-2.004451805e-15
1.336273405e-15
7.401803708e-16
2.086873641e-16
1.761287488e-16
8.580130577e-17
-6.93856922e-18
-4.944849248e-17
6.16762974e-17
-1.116025265e-16
-4.649917548e-17
-7.241373149e-17
-1.785831913e-16
2.617133616e-18
-4.967972662e-18
-3.844207076e-17
1.181943543e-16
1.08346471e-16
-9.603699629e-17
-2.380747329e-16
-5.716456719e-16
-1.807198253e-16
-1.417090235e-16
-1.227516763e-16
-2.374237328e-16
-3.188523539e-16
-4.28352049e-16
-7.268500957e-16
-5.598973549e-17
-4.001598218e-17
1.975896077e-16
-1.082058797e-15
-4.540818191e-16
-1.111512455e-17
3.574778968e-16
4.527309351e-16
-9.084134704e-16
-4.999013758e-17
2.835432818e-16
4.308268902e-16
-8.651912555e-16
-2.214301299e-16
-5.681291166e-16
-8.080024262e-16
-3.773636259e-16
1.692296592e-16
2.205370757e-17
-1.63961725e-17
-3.456705108e-17
-1.781135468e-18
1.601994021e-17
-1.223500326e-16
-3.730765152e-16
-1.058340407e-16
-9.515281931e-17
-1.193924868e-16
-3.442377993e-16
4.200884522e-16
-3.868394691e-16
-4.017622198e-16
4.7440505e-16
2.717590404e-16
-1.505659552e-17
2.529001581e-16
5.148694681e-16
4.080366818e-17
-2.973971503e-17
-1.563468149e-16
1.630454139e-17
9.962159662e-16
5.088584596e-16
4.196595129e-17
-4.031371608e-16
1.796437591e-15
-9.369821453e-16
-5.489826457e-16
-2.304091785e-16
-6.134758314e-17
-1.546206083e-16
-1.743217635e-16
-1.330039864e-16
-6.324771035e-17
2.574818196e-17
-2.664429649e-17
6.367607106e-18
3.447489252e-17
1.479541647e-15
1.205987403e-16
3.710326306e-18
1.036236399e-16
3.481514726e-18
-1.365281859e-16
-1.576809542e-16
-2.496076816e-16
1.448419118e-16
-1.163368939e-16
7.613935215e-17
4.168486961e-16
3.673375048e-16
4.441711031e-16
5.084658881e-16
5.615308313e-16
5.121154775e-16
5.170363243e-16
5.276805199e-16
4.645950548e-16
2.757445371e-16
-2.112230057e-18
2.542699605e-16
8.849688232e-18
7.125212071e-19
-1.060237756e-17
-1.232306793e-16
2.66224537e-17
1.158288521e-17
-1.630648974e-16
-1.15858975e-15
-5.266179482e-16
-1.262477464e-15
-7.070864751e-16
-3.60249863e-16
-4.383236786e-16
-4.552155103e-16
-3.959355136e-16
-4.476350849e-16
-4.639908121e-16
-4.657016868e-16
-4.75467212e-16
-3.878074761e-16
-4.654377101e-16
-4.743953031e-16
-4.675825467e-16
-4.320800243e-16
-3.812223674e-16
-4.526812884e-16
-4.201809489e-16
-3.322627932e-16
-3.172008751e-16
-1.804776725e-15
-1.684552116e-15
-1.143890947e-15
-1.313226337e-15
-1.305239204e-15
-1.598425805e-15
-2.040182242e-15
-1.788448849e-15
-1.302924752e-15
-7.84670637e-16
-2.189083494e-15
-1.242506204e-15
-2.620858695e-16
-1.034469337e-15
-1.073568454e-14
-1.329103468e-14
-1.269115248e-14
5.64092401e-15
6.789587629e-15
7.553675107e-15
4.639388524e-15
5.267032826e-15
5.737278907e-15
6.215784536e-15
6.66001288e-15
5.189841934e-15
5.988020344e-15
6.315182162e-15
6.410578337e-15
6.302059439e-15
4.612614673e-15
4.544170654e-15
3.797214801e-15
-2.809909241e-15
-3.77095396e-15
-7.578523864e-15
-7.65811321e-15
-1.097725763e-14
-9.778582663e-15
-7.790016178e-15
-1.515087134e-14
-1.531471446e-14
-1.427282057e-14
-1.323361188e-14
-1.147846502e-14
-1.925349767e-14
-1.567212137e-14
-1.065803164e-14
-6.550958342e-15
-5.61581829e-15
-1.941954299e-14
-3.873142991e-14
-3.655388885e-14
-3.291829185e-14
-3.770801213e-14
-1.190402728e-12
-1.694505958e-13
5.197446426e-14
-7.888748357e-14
-8.512898409e-14
6.654777041e-14
-7.142816038e-14
-8.118924648e-14
-7.990053645e-14
-7.865296279e-14
-7.7735768e-14
-7.708065111e-14
-7.652697558e-14
-7.57126647e-14
-7.602151069e-14
-7.360229286e-14
-7.150885666e-14
-7.483275366e-14
-7.454250547e-14
-7.47556671e-14
-7.45743366e-14
-7.435128273e-14
-7.414850815e-14
-7.39931448e-14
-7.387783688e-14
-7.382294379e-14
-7.384138496e-14
-7.3919515e-14
-7.405446501e-14
-7.424199822e-14
-7.447215803e-14
-7.473230866e-14
-7.501159362e-14
-7.529651151e-14
-7.558016352e-14
-7.585284354e-14
-7.610507875e-14
-7.633025238e-14
-7.652456203e-14
-7.668860398e-14
-7.682295764e-14
-7.693032731e-14
-7.70074504e-14
-7.705363797e-14
-7.707320712e-14
-7.707005196e-14
-7.704653905e-14
-7.700729827e-14
-7.695735419e-14
-7.690217381e-14
-7.684644826e-14
-7.679283218e-14
-7.674647382e-14
-7.671106924e-14
-7.668880997e-14
-7.66724531e-14
-7.657313288e-14
-7.584403812e-14
-7.185967858e-14
-6.685782708e-14
1.43541034e-13
-1.708513539e-12
-8.455913991e-16
4.41503919e-14
-7.005280619e-14
-4.979414548e-14
-4.223653764e-14
-4.256822453e-14
-4.352418008e-14
-4.430698475e-14
-4.481956549e-14
-4.506232394e-14
-4.517725817e-14
-4.566876296e-14
-4.679807696e-14
-4.389419364e-14
-4.339354534e-14
-4.578952738e-14
-4.422852486e-14
-4.368877435e-14
-4.369741485e-14
-4.382767898e-14
-4.398611991e-14
-4.419546705e-14
-4.430275697e-14
-4.440276161e-14
-4.444005558e-14
-4.440032395e-14
-4.434073669e-14
-4.420902608e-14
-4.405707434e-14
-4.389556298e-14
-4.371579314e-14
-4.352119718e-14
-4.3348071e-14
-4.317454499e-14
-4.300100793e-14
-4.286277751e-14
-4.274567539e-14
-4.264536377e-14
-4.257336069e-14
-4.252687722e-14
-4.250366723e-14
-4.250326512e-14
-4.251761613e-14
-4.255211922e-14
-4.259474339e-14
-4.264303715e-14
-4.269364014e-14
-4.274349555e-14
-4.278962704e-14
-4.283212219e-14
-4.28712177e-14
-4.290581483e-14
-4.293845973e-14
-4.295780922e-14
-4.29071299e-14
-4.242588758e-14
-4.400665007e-14
-4.661957758e-14
1.390172322e-11
2.803744042e-11
9.042656743e-14
6.032814916e-14
-5.476559715e-14
-5.853270751e-14
-5.864404779e-14
-5.852303968e-14
-5.85845508e-14
-5.880178576e-14
-5.90352628e-14
-5.922801501e-14
-5.945054151e-14
-5.86881031e-14
-5.617393971e-14
-5.784643519e-14
-5.922183608e-14
-5.766330032e-14
-5.912797463e-14
-5.862901379e-14
-5.857659902e-14
-5.863901745e-14
-5.875429349e-14
-5.8906651e-14
-5.906636589e-14
-5.921344203e-14
-5.932540369e-14
-5.938693242e-14
-5.939529418e-14
-5.934968104e-14
-5.926168806e-14
-5.913813953e-14
-5.899642604e-14
-5.884581992e-14
-5.869182513e-14
-5.854830382e-14
-5.841957414e-14
-5.830452555e-14
-5.820585982e-14
-5.812433253e-14
-5.80577743e-14
-5.800563141e-14
-5.796772459e-14
-5.794233915e-14
-5.792859263e-14
-5.792538164e-14
-5.793025395e-14
-5.794262598e-14
-5.795950064e-14
-5.797854703e-14
-5.799859431e-14
-5.801890291e-14
-5.803846596e-14
-5.805596805e-14
-5.807068901e-14
-5.807817812e-14
-5.805585247e-14
-5.790699113e-14
-5.755114117e-14
-5.776100299e-14
-1.379485547e-09
-1.162344768e-11
4.925746402e-15
2.410126744e-14
-5.657050326e-14
-5.887725966e-14
-5.829821575e-14
-5.796266569e-14
-5.782522254e-14
-5.79807888e-14
-5.82205092e-14
-5.848133669e-14
-5.883535228e-14
-5.945540544e-14
-5.85578956e-14
-5.712609503e-14
-5.902538681e-14
-5.918901724e-14
-5.919791444e-14
-5.890384586e-14
-5.887112825e-14
-5.888904302e-14
-5.892108723e-14
-5.896054332e-14
-5.900472716e-14
-5.90498864e-14
-5.909191693e-14
-5.912516515e-14
-5.914851386e-14
-5.916048142e-14
-5.916052138e-14
-5.914531113e-14
-5.91161704e-14
-5.90747021e-14
-5.902325331e-14
-5.896725396e-14
-5.890808189e-14
-5.884891628e-14
-5.879177853e-14
-5.873724891e-14
-5.868737466e-14
-5.864086331e-14
-5.859886352e-14
-5.856194349e-14
-5.853063706e-14
-5.850591023e-14
-5.848775322e-14
-5.847500951e-14
-5.846700177e-14
-5.846268571e-14
-5.846086971e-14
-5.84608597e-14
-5.846137173e-14
-5.846135022e-14
-5.846012597e-14
-5.845581113e-14
-5.844270206e-14
-5.840996525e-14
-5.830855391e-14
-5.827907792e-14
-1.228066108e-09
-3.297736619e-11
-5.19027102e-13
-6.586502565e-13
-2.517623952e-14
-5.249040001e-14
-5.882489765e-14
-5.855749217e-14
-5.815996715e-14
-5.801577158e-14
-5.807282153e-14
-5.823932759e-14
-5.861212424e-14
-5.936147862e-14
-5.877519978e-14
-5.923274847e-14
-5.900199583e-14
-5.89328217e-14
-5.908632778e-14
-5.875374105e-14
-5.871595327e-14
-5.872883278e-14
-5.87492252e-14
-5.877175738e-14
-5.879634746e-14
-5.882153567e-14
-5.884615012e-14
-5.886799486e-14
-5.888673552e-14
-5.890094695e-14
-5.890957308e-14
-5.891092246e-14
-5.890474397e-14
-5.889142696e-14
-5.887075297e-14
-5.884531253e-14
-5.881566567e-14
-5.878291952e-14
-5.874790976e-14
-5.870970199e-14
-5.866935494e-14
-5.862728188e-14
-5.858570323e-14
-5.854555018e-14
-5.85074522e-14
-5.847301184e-14
-5.844292939e-14
-5.841790395e-14
-5.839796604e-14
-5.838191556e-14
-5.836946858e-14
-5.835984176e-14
-5.835161988e-14
-5.834355071e-14
-5.833443429e-14
-5.832168614e-14
-5.830292035e-14
-5.827782721e-14
-5.8210472e-14
-5.81853836e-14
-4.23488145e-09
-2.432876708e-10
-2.77261264e-12
-1.560024846e-12
1.307999177e-13
-4.256205544e-14
-5.870500933e-14
-5.854696514e-14
-5.820636496e-14
-5.81934725e-14
-5.826192408e-14
-5.841829188e-14
-5.883116472e-14
-5.95510965e-14
-5.814120626e-14
-5.758266224e-14
-5.752094417e-14
-5.867671834e-14
-5.911527813e-14
-5.873435312e-14
-5.868515773e-14
-5.869794154e-14
-5.871782375e-14
-5.873878216e-14
-5.876031189e-14
-5.878150705e-14
-5.880166937e-14
-5.881965717e-14
-5.883486672e-14
-5.884628539e-14
-5.885320828e-14
-5.885501464e-14
-5.885128482e-14
-5.884212488e-14
-5.882722444e-14
-5.88074608e-14
-5.878322686e-14
-5.875515623e-14
-5.872406928e-14
-5.869019186e-14
-5.865457427e-14
-5.861764146e-14
-5.858098743e-14
-5.854564404e-14
-5.851149766e-14
-5.84781344e-14
-5.844506706e-14
-5.841524486e-14
-5.839046836e-14
-5.836969897e-14
-5.835305581e-14
-5.833959826e-14
-5.832800543e-14
-5.83170149e-14
-5.830455374e-14
-5.82884623e-14
-5.82673497e-14
-5.823803821e-14
-5.817457461e-14
-5.816348776e-14
-2.358503274e-09
-1.193518422e-09
-4.128422297e-11
-2.789303855e-13
-8.016517196e-13
-2.280944544e-14
-5.229600032e-14
-5.923161881e-14
-5.846098121e-14
-5.828774732e-14
-5.83777601e-14
-5.859788538e-14
-5.907941313e-14
-5.909563263e-14
-5.737441085e-14
-5.591461239e-14
-5.65349788e-14
-5.846466947e-14
-5.91676546e-14
-5.873280321e-14
-5.866668846e-14
-5.867934907e-14
-5.870026006e-14
-5.872178347e-14
-5.874343425e-14
-5.876459987e-14
-5.878451715e-14
-5.880226674e-14
-5.881712798e-14
-5.882829411e-14
-5.883515301e-14
-5.883721591e-14
-5.883407395e-14
-5.882569653e-14
-5.881199501e-14
-5.879333426e-14
-5.877010931e-14
-5.874289879e-14
-5.87124859e-14
-5.867955326e-14
-5.864507375e-14
-5.860971867e-14
-5.8574506e-14
-5.85402555e-14
-5.850738585e-14
-5.847637992e-14
-5.844691594e-14
-5.842003253e-14
-5.839609572e-14
-5.837416705e-14
-5.835531315e-14
-5.833942861e-14
-5.832562723e-14
-5.831278646e-14
-5.829824638e-14
-5.828059231e-14
-5.825785177e-14
-5.822477455e-14
-5.816329048e-14
-5.81570747e-14
-4.707390931e-08
-8.302317506e-09
-6.332931524e-10
-1.5543373e-11
1.240603003e-11
-5.139833422e-13
-3.999906066e-14
-5.347116352e-14
-5.88898592e-14
-5.840226041e-14
-5.845952585e-14
-5.873852951e-14
-5.925679858e-14
-5.886836737e-14
-5.67503978e-14
-5.493919672e-14
-5.716614577e-14
-5.849840011e-14
-5.922123446e-14
-5.873697563e-14
-5.864771818e-14
-5.865863545e-14
-5.868079401e-14
-5.870327364e-14
-5.872565932e-14
-5.874756653e-14
-5.876830456e-14
-5.87869028e-14
-5.880259128e-14
-5.881453839e-14
-5.882213866e-14
-5.882490125e-14
-5.882246615e-14
-5.881473595e-14
-5.880170125e-14
-5.878363861e-14
-5.876094868e-14
-5.873419863e-14
-5.870413528e-14
-5.867150945e-14
-5.863728981e-14
-5.860224935e-14
-5.856727078e-14
-5.853312746e-14
-5.850035567e-14
-5.846968045e-14
-5.844134141e-14
-5.841556179e-14
-5.839237877e-14
-5.837136794e-14
-5.835293286e-14
-5.833678734e-14
-5.832220534e-14
-5.830808422e-14
-5.829219432e-14
-5.827385997e-14
-5.825015968e-14
-5.821477692e-14
-5.815644851e-14
-5.815267185e-14
6.819659044e-08
1.701572009e-08
-1.245751579e-09
-1.016558912e-10
-2.955518355e-12
-3.499286573e-12
1.565076718e-13
-1.441853259e-13
-5.375117701e-14
-5.870156646e-14
-5.8544953e-14
-5.88218116e-14
-5.933250745e-14
-5.878742021e-14
-5.589938338e-14
-5.419134244e-14
-5.783818404e-14
-5.855652958e-14
-5.928479092e-14
-5.875492607e-14
-5.863521792e-14
-5.864014507e-14
-5.86618645e-14
-5.868458338e-14
-5.87073199e-14
-5.872975353e-14
-5.875133797e-14
-5.877089706e-14
-5.878765193e-14
-5.88006304e-14
-5.880921645e-14
-5.881289648e-14
-5.881129417e-14
-5.880433213e-14
-5.879203911e-14
-5.877460364e-14
-5.875241188e-14
-5.872600272e-14
-5.869619493e-14
-5.866370866e-14
-5.862963442e-14
-5.859469591e-14
-5.855977028e-14
-5.852570008e-14
-5.84930413e-14
-5.846244455e-14
-5.843424398e-14
-5.840853685e-14
-5.83857693e-14
-5.836563612e-14
-5.834780855e-14
-5.833203199e-14
-5.83175329e-14
-5.830318317e-14
-5.828721856e-14
-5.826815025e-14
-5.824312944e-14
-5.820583297e-14
-5.815130334e-14
-5.814921706e-14
3.497779463e-07
1.553241822e-09
-8.530814981e-09
-5.658461584e-10
-1.609193977e-11
-1.952457628e-13
-8.312737475e-13
-1.370338844e-13
-3.983264569e-14
-5.884439057e-14
-5.856251122e-14
-5.884984394e-14
-5.93733048e-14
-5.855753828e-14
-5.466250491e-14
-5.346470004e-14
-5.847928501e-14
-5.861016714e-14
-5.9356188e-14
-5.878459179e-14
-5.863006513e-14
-5.862586931e-14
-5.864630495e-14
-5.866907507e-14
-5.869182059e-14
-5.87142472e-14
-5.873598673e-14
-5.875598412e-14
-5.877335959e-14
-5.878715832e-14
-5.879658381e-14
-5.880114741e-14
-5.880030297e-14
-5.879412934e-14
-5.878250611e-14
-5.876559386e-14
-5.874384139e-14
-5.871766061e-14
-5.868814378e-14
-5.865579495e-14
-5.862190574e-14
-5.858707662e-14
-5.85521835e-14
-5.851821119e-14
-5.848554797e-14
-5.845505308e-14
-5.84269885e-14
-5.840136848e-14
-5.837883087e-14
-5.835911624e-14
-5.834180493e-14
-5.832654915e-14
-5.831238204e-14
-5.829785316e-14
-5.828196581e-14
-5.826236068e-14
-5.82363107e-14
-5.819815247e-14
-5.81476954e-14
-5.814583862e-14
5.749496652e-08
1.838199072e-06
-8.129749329e-09
-9.09006618e-10
-2.616272108e-11
9.741250412e-13
-1.123977333e-12
2.975796089e-13
-3.340150657e-14
-5.85613134e-14
-5.882978271e-14
-5.889648805e-14
-5.939283164e-14
-5.830208072e-14
-5.346148907e-14
-5.252821627e-14
-5.781420018e-14
-5.836304977e-14
-5.943629859e-14
-5.881872804e-14
-5.862675151e-14
-5.861195816e-14
-5.863094139e-14
-5.865403853e-14
-5.867703111e-14
-5.869952861e-14
-5.872128201e-14
-5.874172486e-14
-5.875979316e-14
-5.87745647e-14
-5.878500795e-14
-5.879052506e-14
-5.879046693e-14
-5.878488412e-14
-5.877338504e-14
-5.875654274e-14
-5.873495454e-14
-5.870902876e-14
-5.867977869e-14
-5.864761476e-14
-5.861380767e-14
-5.85790475e-14
-5.854422973e-14
-5.851031763e-14
-5.847759816e-14
-5.844723343e-14
-5.841935594e-14
-5.839413432e-14
-5.83719649e-14
-5.835255283e-14
-5.833563214e-14
-5.832071889e-14
-5.830702713e-14
-5.829270494e-14
-5.827669944e-14
-5.82567084e-14
-5.822992438e-14
-5.819145944e-14
-5.814457204e-14
-5.813197265e-14
6.435946618e-07
1.050305808e-07
-1.730905224e-08
-8.646085161e-09
-2.406066653e-10
1.071671597e-11
6.1961039e-13
-5.379461527e-13
-6.056704152e-14
-6.019627121e-14
-5.899419758e-14
-5.896236468e-14
-5.940471808e-14
-5.80688271e-14
-5.248078355e-14
-5.171603444e-14
-5.69962073e-14
-5.805521528e-14
-5.95087165e-14
-5.885219397e-14
-5.862492987e-14
-5.859930987e-14
-5.861614083e-14
-5.86389206e-14
-5.866202735e-14
-5.868470733e-14
-5.870658365e-14
-5.872730737e-14
-5.874581405e-14
-5.876116693e-14
-5.877236303e-14
-5.877865115e-14
-5.877955392e-14
-5.877476667e-14
-5.876414998e-14
-5.874813524e-14
-5.872702858e-14
-5.870145806e-14
-5.867223208e-14
-5.864024553e-14
-5.860635378e-14
-5.857150444e-14
-5.853652995e-14
-5.850235522e-14
-5.846969031e-14
-5.843936845e-14
-5.841159364e-14
-5.83866761e-14
-5.836471509e-14
-5.834568533e-14
-5.832927906e-14
-5.831467439e-14
-5.830121675e-14
-5.828734405e-14
-5.827132095e-14
-5.825104709e-14
-5.822373989e-14
-5.818554344e-14
-5.814211652e-14
-5.81131265e-14
8.129070659e-07
8.592469395e-08
-1.511310842e-08
-3.736475078e-08
-1.258200933e-10
1.281406542e-10
7.475521974e-12
2.443631443e-13
2.944886327e-13
-6.946059242e-14
-5.767010275e-14
-5.900928578e-14
-5.942685387e-14
-5.791585409e-14
-5.184571301e-14
-5.11812174e-14
-5.645583792e-14
-5.782438307e-14
-5.955193296e-14
-5.887325926e-14
-5.862086889e-14
-5.858663043e-14
-5.860165942e-14
-5.862456766e-14
-5.864832164e-14
-5.867145825e-14
-5.869361419e-14
-5.871439011e-14
-5.873296732e-14
-5.874847368e-14
-5.875996331e-14
-5.876662011e-14
-5.876797e-14
-5.876353836e-14
-5.875347474e-14
-5.873788534e-14
-5.871718738e-14
-5.869208646e-14
-5.86630826e-14
-5.863135222e-14
-5.859744924e-14
-5.856261076e-14
-5.852771785e-14
-5.849362256e-14
-5.846125662e-14
-5.843098026e-14
-5.840339247e-14
-5.837877997e-14
-5.835709649e-14
-5.833853548e-14
-5.832267025e-14
-5.830855077e-14
-5.829539519e-14
-5.828187635e-14
-5.826596627e-14
-5.824555492e-14
-5.821784295e-14
-5.818014027e-14
-5.813972742e-14
-5.808818114e-14
-4.408195021e-08
-1.348208327e-08
-1.84175166e-06
-1.203899776e-07
1.8503097e-09
6.970906907e-10
4.864428555e-11
1.108498682e-11
2.049161694e-12
-3.622398372e-14
-6.023330272e-14
-5.677960936e-14
-5.918362893e-14
-5.787197967e-14
-5.162080417e-14
-5.098124684e-14
-5.631061614e-14