/*--------------------------------*- C++ -*----------------------------------*\
  =========                 |
  \\      /  F ield         | OpenFOAM: The Open Source CFD Toolbox
   \\    /   O peration     | Website:  https://openfoam.org
    \\  /    A nd           | Version:  10
     \\/     M anipulation  |
\*---------------------------------------------------------------------------*/
FoamFile
{
    format      ascii;
    class       volScalarField;
    location    "0.0250188088";
    object      ddt0(rho,CH3);
}
// * * * * * * * * * * * * * * * * * * * * * * * * * * * * * * * * * * * * * //

dimensions      [1 -3 -1 0 0 0 0];

internalField   nonuniform List<scalar> 
5170
(
2.439901037e-06
2.44433291e-06
2.447543566e-06
2.450946457e-06
9.024899929e-10
2.435055293e-06
2.441370826e-06
2.446646724e-06
2.469715859e-06
2.471200308e-06
2.403340635e-06
2.409604618e-06
2.415366185e-06
2.422850127e-06
2.481228538e-06
2.423654937e-06
2.429916199e-06
2.435836968e-06
2.43781647e-06
2.454124153e-06
2.457703738e-06
2.464232336e-06
2.469788868e-06
2.471252935e-06
2.478985376e-06
2.494640373e-06
2.502612807e-06
2.508866451e-06
2.507254478e-06
2.51741896e-06
2.526242119e-06
2.534839249e-06
2.543065263e-06
2.541396869e-06
2.555552981e-06
2.549498337e-06
2.558362709e-06
2.566231395e-06
2.570433831e-06
2.586832751e-06
2.561620673e-06
2.571660971e-06
2.580673743e-06
2.586579756e-06
2.606140998e-06
2.563084536e-06
2.574296967e-06
2.587829505e-06
2.590388364e-06
2.611979187e-06
2.559073237e-06
2.569623773e-06
2.581884657e-06
2.587953027e-06
2.610069002e-06
2.553726811e-06
2.563336829e-06
2.569483311e-06
2.581979051e-06
2.60541977e-06
2.54586968e-06
2.556232484e-06
2.561398199e-06
2.574010078e-06
2.599928889e-06
2.540250731e-06
2.551081617e-06
2.55902788e-06
2.568239309e-06
2.597690595e-06
2.538883585e-06
2.549367308e-06
2.559566971e-06
2.567741002e-06
2.601079363e-06
2.543160328e-06
2.552797419e-06
2.562793493e-06
2.57346942e-06
2.609573764e-06
2.552646859e-06
2.560951019e-06
2.569573482e-06
2.584940328e-06
2.623395814e-06
2.565223836e-06
2.573634204e-06
2.580075718e-06
2.598232913e-06
2.640783502e-06
2.579806209e-06
2.587936937e-06
2.591864743e-06
2.61562158e-06
2.658394036e-06
2.588426791e-06
2.598185927e-06
2.608801231e-06
2.696238929e-06
3.254293903e-06
-2.042492491e-15
-2.298867029e-15
2.485107754e-15
2.434683893e-15
2.377402769e-15
-9.597573654e-16
1.445805379e-15
3.197059005e-16
-1.390712025e-15
1.579354879e-15
-3.610002278e-16
1.79669813e-17
-1.02552273e-15
1.194829739e-15
-2.13894617e-16
-3.663596433e-15
-9.10723834e-16
-1.81650273e-16
-2.026691463e-15
1.272451704e-13
-1.28591332e-11
-1.013219918e-13
-7.392344404e-14
7.376842712e-14
7.896479853e-12
9.348700842e-09
6.082495893e-12
3.573517487e-12
1.08779673e-10
-8.671490336e-09
-1.02751148e-08
9.030465562e-09
-1.073362196e-09
2.946831087e-08
6.290903465e-07
3.491208212e-06
-3.954865099e-08
9.727793869e-09
3.214597174e-06
1.069821859e-06
1.015921799e-06
1.002433132e-06
3.472764436e-06
2.786312796e-06
-2.173132359e-06
2.232730431e-07
-2.532135784e-06
-1.515590261e-06
-2.265309908e-06
-3.982288137e-08
-2.869758453e-08
-1.046291256e-06
-1.664134306e-07
1.027274609e-06
-1.842765747e-07
-2.032157882e-07
2.474956955e-07
-2.199084798e-06
-2.058211587e-07
-4.536970425e-07
-4.253491169e-07
-1.022551429e-07
-1.273620324e-08
-2.330747688e-08
-7.191376314e-07
-5.620502369e-07
-1.825848782e-07
-1.735128366e-07
-4.405653933e-07
-8.630356248e-07
-8.657889315e-07
-4.942878262e-07
-4.011618399e-07
-7.593473598e-07
-1.449382427e-07
-4.89823437e-07
-7.854077205e-07
-7.039142037e-07
-1.028124735e-06
-5.072790154e-07
-1.239635317e-07
-1.007599991e-06
-9.935806326e-07
5.891850953e-08
6.051019354e-07
-4.785669932e-07
4.512252284e-09
-1.323269881e-08
-5.059811835e-07
5.325361137e-06
4.730624405e-07
-4.454040927e-07
-3.743613131e-07
2.743684117e-07
-5.536264204e-06
-3.050744243e-05
-3.149135395e-06
-1.844447754e-06
1.975842426e-07
-1.117171942e-06
2.680885298e-06
2.627933029e-06
3.864535131e-06
2.406616533e-05
-0.001953705908
2.557904125e-06
2.649539623e-06
2.845783599e-06
4.053767454e-05
0.0005124394093
2.739740984e-06
3.143420982e-06
7.196835766e-05
1.569233767e-05
0.0001558181352
2.870862863e-06
2.430805747e-06
-8.961471018e-05
1.06861064e-05
7.301582085e-05
2.540109788e-06
2.255263933e-06
-1.010620541e-05
5.488947424e-06
3.998033871e-05
2.620463153e-06
1.665979078e-06
-6.882695061e-07
3.068607906e-06
-3.239039953e-06
3.002225972e-06
4.601311625e-06
1.541656153e-06
-6.893971234e-06
-1.564915707e-05
4.238768465e-06
8.076477073e-05
9.024175787e-06
-2.003456237e-06
-3.325481885e-05
2.487393293e-06
-8.537603035e-05
8.18663452e-06
1.761104161e-05
2.545183536e-05
3.886722205e-06
-4.303387687e-06
-1.155959154e-06
1.14542145e-06
9.280233554e-07
-2.707200449e-07
-5.492000748e-06
-1.204832467e-05
-2.988123253e-05
-8.343152188e-05
-1.340466358e-05
-1.629887077e-05
-2.620454631e-05
-3.792311438e-05
-7.028001908e-05
-7.004845353e-06
-9.115624597e-06
-1.234851215e-05
-8.636346323e-06
5.042674792e-06
-3.211092084e-07
-1.882043287e-06
4.147930779e-06
1.899497751e-05
4.247116497e-05
-3.690773863e-07
4.741475649e-06
1.992835506e-05
7.296423402e-05
0.0002514287466
8.598946946e-06
7.657995548e-06
1.085907515e-05
2.805028192e-05
6.040664019e-05
-5.182597391e-06
-4.442046659e-05
-6.159575427e-05
-0.0001286619105
-0.001882469541
-4.91084586e-06
-9.069060627e-05
-0.0007726728014
-0.0004339845743
-0.0006782285454
7.592306804e-05
0.0004798590534
-0.0002415034371
0.00120727672
0.001726658924
-3.912378479e-05
-5.808688234e-05
-0.0001622148617
-5.860358733e-05
0.0006916857733
6.989982102e-06
2.584501529e-05
0.0001203323058
0.0004702027851
0.001521843356
0.0004034183098
0.0004893966929
0.0006880839699
0.001056269459
0.001730494126
0.0008515273483
0.0009216288472
0.001078081688
0.001316498457
0.001649109903
0.0008504486485
0.0008721574426
0.0008437601043
0.001001567348
0.001108354881
0.0004959122189
0.0005060332253
0.0005364267168
0.0005309034156
0.0005625749402
0.0002365049664
0.0002373122527
0.000239514803
0.0002426941989
0.0002410307973
0.0001060881877
0.0001059262168
0.0001055603634
0.0001027977342
0.0001034697362
4.606476628e-05
4.531049147e-05
4.592161787e-05
4.324193604e-05
4.161931205e-05
1.987985127e-05
2.015560329e-05
2.040199105e-05
1.807076915e-05
1.648622082e-05
9.055835954e-06
8.850388121e-06
7.562801109e-06
7.08688542e-06
6.537672396e-06
5.299947661e-06
5.373263286e-06
5.27529335e-06
3.105104745e-06
2.013214081e-06
1.321751813e-06
1.326962039e-06
1.337665698e-06
1.293009355e-06
1.204919818e-06
4.554213289e-07
4.492408373e-07
5.010053248e-07
4.799681345e-07
4.368616216e-07
8.508044932e-08
8.11928818e-08
7.177863891e-08
5.700519631e-08
3.864876435e-08
-1.237669239e-07
-1.219054074e-07
-1.289969295e-07
-1.441843985e-07
-1.558919019e-07
-1.928119348e-07
-1.959892179e-07
-2.048832942e-07
-2.167378646e-07
-2.317798527e-07
-1.554004103e-07
-1.58763942e-07
-1.659486918e-07
-1.76119263e-07
-1.887748814e-07
-5.191737136e-08
-5.562899149e-08
-3.932489206e-08
-4.848238842e-08
-6.190894273e-08
1.022939037e-07
1.015422923e-07
9.898782396e-08
9.507130146e-08
8.77774218e-08
2.051807541e-07
2.04122869e-07
1.999673329e-07
1.995448411e-07
1.987370055e-07
2.214631058e-07
2.22144969e-07
2.241170783e-07
2.272956988e-07
2.323334441e-07
1.684963335e-07
1.702988406e-07
1.734715948e-07
1.7862682e-07
2.317836922e-07
8.631898148e-08
9.016688704e-08
1.073511289e-07
1.113820917e-07
1.203716483e-07
-7.21153459e-08
-3.023108554e-08
1.352145725e-08
1.610976645e-08
2.577829515e-08
-5.500123117e-08
-1.457938628e-08
1.417293147e-08
-1.194967309e-07
-1.241391999e-08
5.979604876e-08
-2.662066842e-08
3.904207025e-08
-1.000937596e-07
8.440341453e-08
3.488404534e-08
3.847258709e-08
1.831224641e-10
-2.453547428e-08
1.623700356e-09
-1.210304397e-08
2.59747813e-09
1.660849499e-08
-3.509925221e-08
-1.894879888e-08
2.861588952e-08
1.553104095e-08
3.036412935e-08
2.752675201e-08
6.682485155e-09
1.144362873e-08
5.187781002e-08
-2.454966214e-08
4.372834906e-08
4.632527334e-08
-2.090874345e-08
-1.960199067e-08
9.888189364e-09
5.554456782e-08
-5.677693406e-08
-1.273923918e-07
-1.257788769e-07
-1.222549534e-07
-1.159711487e-07
-1.067063277e-07
-1.537875282e-07
-1.520328993e-07
-1.478654855e-07
-1.411869976e-07
-1.31417942e-07
-1.667282536e-07
-1.648033928e-07
-1.603876943e-07
-1.534468649e-07
-1.433031183e-07
-1.678960461e-07
-1.655789436e-07
-1.601735867e-07
-1.523930193e-07
-1.414314869e-07
-1.774437893e-07
-1.739629279e-07
-1.633986248e-07
-1.57423824e-07
-1.470057366e-07
-2.352585203e-07
-2.315393244e-07
-2.237580356e-07
-2.124361895e-07
-1.984893889e-07
-3.194287771e-07
-3.150059608e-07
-3.057070557e-07
-2.921769798e-07
-2.753182278e-07
-4.563819341e-07
-4.514099667e-07
-4.408096048e-07
-4.250023157e-07
-4.044981881e-07
-7.370917616e-07
-7.327321045e-07
-7.207344706e-07
-6.985524228e-07
-6.630337905e-07
-7.179042826e-07
-7.038714432e-07
-6.995530396e-07
-6.778200014e-07
-6.582371856e-07
-7.341373139e-07
-7.27814329e-07
-7.153862017e-07
-6.997798293e-07
-6.867809138e-07
-6.937077583e-07
-6.897333753e-07
-6.874684858e-07
-6.912778792e-07
-6.063077115e-07
-6.564070763e-07
-6.531278322e-07
-6.461102475e-07
-6.361945068e-07
-6.268192353e-07
-8.379644825e-07
-8.344183448e-07
-8.274526467e-07
-8.165195551e-07
-8.041585478e-07
-1.158508489e-06
-1.154589411e-06
-1.145459575e-06
-1.130842147e-06
-1.111671713e-06
-1.876836574e-06
-1.871123968e-06
-1.84063776e-06
-1.801148907e-06
-1.72071933e-06
-1.392636655e-06
-1.386951223e-06
-1.375871377e-06
-1.360472966e-06
-1.343615995e-06
-1.292928823e-06
-1.280162048e-06
-1.260188789e-06
-1.24228699e-06
-1.255853272e-06
-1.230247967e-06
-1.221623641e-06
-1.210449838e-06
-1.203546135e-06
-1.235241086e-06
-0.008080927594
-0.002187284261
-0.0003319291509
-0.0001193859196
1.697205226e-05
3.746085724e-05
0.0002670756966
3.272372299e-05
6.102699988e-05
3.038791814e-05
-9.322978299e-05
-0.0001436978852
-4.830045821e-05
4.563808678e-05
-0.0002220624316
0.0001861084711
-0.0004287287205
-0.003016477234
-0.001190311583
0.002427397039
0.003353635078
0.002604325801
0.001963897554
0.001181775387
0.0005891431768
0.0002411326991
9.926167928e-05
4.079075853e-05
1.479913343e-05
6.177662593e-06
2.641930491e-06
1.145228299e-06
4.183107009e-07
2.340717242e-08
-1.727015874e-07
-2.452292119e-07
-2.027277316e-07
-8.195403945e-08
8.427175165e-08
2.04727336e-07
2.350432158e-07
2.424865243e-07
1.205469892e-07
1.936934988e-09
-6.9871779e-08
2.298141832e-08
-5.656480716e-08
-3.229664014e-08
-1.926294958e-08
1.971231695e-08
-7.990882139e-08
-9.90292141e-08
-1.235179739e-07
-1.350765025e-07
-1.311470104e-07
-1.426067421e-07
-1.867894329e-07
-2.609865921e-07
-3.861619039e-07
-6.201014414e-07
-6.552778788e-07
-6.826211655e-07
-3.984787642e-07
-6.236032685e-07
-8.016477554e-07
-1.101827672e-06
-1.640864913e-06
-1.368596186e-06
-1.269915668e-06
-1.272866564e-06
-0.004182726566
-0.0002559790922
-6.881047933e-06
-4.643712421e-07
-8.092802109e-08
-0.001289936783
0.001286337382
-0.0002867329934
1.540222015e-06
-3.176991658e-07
-0.0002512568806
-0.0002795122165
0.0004831184531
5.771594896e-05
1.954846592e-07
0.0001648887748
0.009024850606
-0.005397620209
-0.0001337953086
-2.37418966e-05
-0.0005898513118
0.005987647873
-0.03902302931
-0.006886817516
-0.0001365318145
0.0007316558643
0.02074986865
0.002873734089
0.005051510923
0.0001548924816
0.001079141024
0.00295403544
-0.02426857022
-0.0004194425012
0.0004055548043
0.0004331249999
0.005497243648
0.08690331362
0.001787496883
-0.0002284362246
3.275301978e-05
-0.001335677604
-0.006196390493
-0.101650019
-0.01001809406
8.874542308e-05
0.0007961465908
-0.01356959887
-0.1030790255
0.005255057924
-0.0001818971742
-5.575499623e-05
-0.02131060796
0.1246683051
0.001365824057
-0.0002308831015
-0.0005799970277
0.002561769704
0.06492746409
-0.01001234514
-0.000135289695
-0.009543996026
-0.0009218025925
0.0009064842853
-0.0009686743904
0.0001493564036
0.002804002614
0.0005076290399
-2.02506493e-06
-0.001943522513
0.0003072809432
0.003077265469
0.0003524241268
0.0001710416799
0.185087003
0.000162693069
0.002962611814
0.0002415329819
0.0007551702036
-0.137265437
-0.0001994969025
-0.0001376627502
-0.002139005946
-0.01353883264
-0.01766700796
-0.001207423242
-0.00293369062
-0.007627085191
-0.01492567239
-0.006128977989
-0.001935958463
-0.003260625687
-0.002135645597
0.01592728599
-0.08095267845
0.006148302093
0.01959893419
0.03176000688
-0.07297699172
-0.7087636529
0.007332692169
0.02097605683
0.04294648816
0.04964773558
-0.02174734218
0.004381798934
0.009864383494
0.01865520792
0.02650553838
0.02245343927
0.002512122271
0.003884794299
0.005728948652
0.007281827627
0.00704765422
0.001306761458
0.001483084939
0.001623673178
0.001673628128
0.001530197885
0.0005904457996
0.0005873835016
0.000538077938
0.0004642347934
0.0003725664476
0.0002436861911
0.0002290524413
0.0001986901095
0.0001595464772
0.0001191740911
9.890937024e-05
8.509791389e-05
8.503038278e-05
6.232367211e-05
4.763102522e-05
4.188632586e-05
3.515525631e-05
3.386262681e-05
2.587487462e-05
1.694577788e-05
1.358761925e-05
1.32899826e-05
9.530803101e-06
1.277785865e-05
7.675307809e-06
5.501623523e-06
1.061462943e-05
3.281002598e-06
4.60039768e-06
3.206679095e-06
2.787585097e-06
2.567200527e-06
1.980661761e-06
2.264832011e-06
1.619317819e-06
1.123410461e-06
1.133079512e-06
4.089936294e-07
5.962192621e-07
7.13934832e-07
3.793045208e-07
3.485368825e-07
2.853448635e-07
1.125489136e-07
-4.59275782e-08
2.360310236e-08
-6.468208057e-08
-6.753835064e-08
-1.31672023e-07
-2.207448533e-07
-2.090745799e-07
-2.464793636e-07
-2.547024316e-07
-3.133525221e-07
-3.717246537e-07
-2.638860433e-07
-2.908072385e-07
-3.75537301e-07
-3.948157084e-07
-4.478283397e-07
-2.161477105e-07
-2.891824219e-07
-2.848646507e-07
-3.413548879e-07
-3.385458309e-07
-9.293127323e-08
-1.079340415e-07
-1.567721021e-07
-1.938543634e-07
-1.509367487e-07
6.899971155e-08
4.502707655e-08
2.988728839e-08
1.680538128e-08
6.918594713e-08
1.916081343e-07
1.826841102e-07
1.761231597e-07
2.439670036e-07
2.761761864e-07
2.334795388e-07
2.403826369e-07
3.01789554e-07
2.825563444e-07
3.066582651e-07
2.515535458e-07
2.391320237e-07
2.504910215e-07
2.800100797e-07
2.622221473e-07
1.440695541e-07
1.691612976e-07
1.838783139e-07
1.697528493e-07
1.931305228e-07
9.800603784e-09
2.423315132e-08
5.078204094e-08
6.499464398e-08
7.557623372e-08
3.724663929e-08
-4.59380231e-08
4.029228663e-08
4.998643593e-08
1.662422065e-08
-2.547422575e-09
-5.60388147e-08
-5.040500805e-08
1.934479393e-08
2.312793792e-08
5.018166057e-09
-5.428454404e-09
4.039209867e-08
-2.457664851e-08
2.374764267e-09
-1.319568977e-08
2.176605333e-09
1.204896813e-09
-2.317268083e-08
1.746715999e-08
-4.932676468e-09
-1.240065091e-08
-1.040158929e-08
6.537941404e-09
1.73011084e-08
-6.273555027e-09
6.468667966e-08
1.943538749e-08
1.03786214e-08
-1.786283615e-08
2.669200533e-08
7.052848119e-08
-9.58583411e-09
-1.204487246e-08
1.500836909e-09
-9.328130186e-08
-7.883998994e-08
-6.339482963e-08
-5.054358802e-08
-4.04602269e-08
-1.173417835e-07
-1.013535565e-07
-8.433081521e-08
-6.592069688e-08
-4.054267276e-08
-1.270699116e-07
-1.026191454e-07
-7.880959901e-08
-5.577067665e-08
-2.645746279e-08
-1.098825193e-07
-8.599068171e-08
-6.436236549e-08
-6.89359496e-08
-3.101860727e-08
-1.490270297e-07
-1.097185168e-07
-7.988942786e-08
-5.781882797e-08
-3.790567715e-08
-1.675340052e-07
-1.36659988e-07
-1.063889935e-07
-7.778458048e-08
-5.226618371e-08
-2.374386333e-07
-1.991560389e-07
-1.602302144e-07
-1.213487016e-07
-8.988619869e-08
-3.558147576e-07
-3.044578011e-07
-2.585433094e-07
-3.165059815e-07
-2.585532921e-07
-6.083376932e-07
-5.53027323e-07
-3.691182846e-07
-3.099427629e-07
-2.519401495e-07
-6.0809273e-07
-5.382076941e-07
-4.838883411e-07
-4.358345713e-07
-3.937806613e-07
-6.44589968e-07
-6.077304005e-07
-5.593077448e-07
-5.156834208e-07
-7.200594089e-07
-1.220357385e-07
-8.658643689e-07
-5.230634412e-07
-4.805699306e-07
-4.604102094e-07
-6.063280196e-07
-5.816913236e-07
-5.556790452e-07
-5.345122483e-07
-5.15528292e-07
-7.807851043e-07
-7.571831111e-07
-7.302671948e-07
-6.998674174e-07
-6.629590589e-07
-1.067407728e-06
-1.020443145e-06
-9.995766512e-07
-1.389050057e-06
-1.285223606e-06
-1.686503542e-06
-1.623784263e-06
-1.154277582e-06
-1.084372976e-06
-9.73632642e-07
-1.295322655e-06
-1.231549948e-06
-1.154345786e-06
-1.075531348e-06
-9.909247647e-07
-1.131415759e-06
-1.08001285e-06
-1.0901405e-06
-1.092425768e-06
-1.087296995e-06
-1.100842911e-06
-6.083554527e-07
-9.615913831e-07
-8.158017485e-07
-9.143443656e-07
1.327383559e-10
-6.224200904e-07
-6.923142222e-08
-3.960480002e-10
6.882629486e-09
-8.890206149e-09
-1.413732435e-08
-1.700011139e-08
-6.180412772e-09
2.884464151e-08
1.213892398e-08
-3.487502869e-08
1.527352361e-08
3.410286655e-08
3.765687021e-08
-6.650681337e-09
1.664646687e-08
-3.967094403e-08
6.984873658e-09
3.512437359e-08
3.653025397e-08
2.455665937e-08
1.413214911e-08
4.718335925e-09
-3.802075269e-09
-1.174831344e-08
-1.909923508e-08
-2.592259799e-08
-3.237326872e-08
-3.84148275e-08
-3.836981572e-08
-3.288212658e-08
-2.773333532e-08
-2.289319543e-08
-1.822413849e-08
-1.384074395e-08
-9.71730689e-09
-5.704682079e-09
-1.885751115e-09
1.66915923e-09
5.071189211e-09
8.311605841e-09
1.145847471e-08
1.465035631e-08
1.76288294e-08
2.044328281e-08
2.31099119e-08
2.567580671e-08
2.815924726e-08
3.052083005e-08
3.277109018e-08
3.49562977e-08
3.707025137e-08
3.909086001e-08
3.957568872e-08
3.195069583e-08
-1.942846818e-08
3.411977801e-08
1.074211699e-09
1.885007262e-08
-1.018879468e-07
-2.713873861e-06
-3.251839653e-08
-1.597798e-08
-9.306424793e-09
-8.011279202e-09
7.745273287e-09
1.566925142e-08
1.541543278e-08
1.602605374e-08
-1.28617808e-08
-6.567429697e-09
2.522316746e-08
-6.31968119e-09
-2.118097651e-08
-1.421563703e-08
-1.0106885e-09
-1.21160329e-08
-4.450206222e-09
2.563926886e-09
8.135453826e-09
-1.127999277e-08
-1.887566373e-08
-5.590187059e-09
5.972611128e-09
1.629556345e-08
2.054647404e-08
1.211038502e-08
4.381309623e-09
-2.66494779e-09
-9.127024069e-09
-1.505977872e-08
-2.046922266e-08
-2.048011461e-08
-1.595298816e-08
-1.183838224e-08
-8.23519946e-09
-4.641757956e-09
-1.109663685e-09
2.151455714e-09
5.066208781e-09
7.855624028e-09
1.050506361e-08
1.302554672e-08
1.538458265e-08
1.764190862e-08
1.972739739e-08
2.159730914e-08
2.348408471e-08
2.504788878e-08
2.653333126e-08
2.781085072e-08
2.843279359e-08
2.705291397e-08
2.376878306e-08
1.070097308e-08
-1.74013248e-08
2.553073279e-08
2.884219026e-09
1.897105204e-08
-3.964176547e-07
4.134464505e-07
-1.443447829e-08
-5.366799675e-08
-5.509307691e-08
-5.203410566e-08
-5.072328032e-08
-4.992549164e-08
-4.943612652e-08
-4.911530272e-08
-4.878834064e-08
-4.862652986e-08
-4.857991769e-08
-4.84045953e-08
-4.835876742e-08
-4.847995026e-08
-4.846294864e-08
-4.8164975e-08
-4.801374473e-08
-4.793829094e-08
-4.790130075e-08
-4.780499236e-08
-4.774902419e-08
-4.775989741e-08
-4.776996434e-08
-4.777977048e-08
-4.777370292e-08
-4.773205149e-08
-4.769452357e-08
-4.766069861e-08
-4.76303245e-08
-4.760351582e-08
-4.757971023e-08
-4.757469596e-08
-4.758366147e-08
-4.759290952e-08
-4.760350153e-08
-4.761212123e-08
-4.762031056e-08
-4.762838312e-08
-4.763643074e-08
-4.764434626e-08
-4.765243724e-08
-4.766056446e-08
-4.766895478e-08
-4.767645395e-08
-4.768387649e-08
-4.769079429e-08
-4.769649266e-08
-4.770293014e-08
-4.770850491e-08
-4.771433096e-08
-4.77158915e-08
-4.771437228e-08
-4.770641759e-08
-4.767676317e-08
-4.761888714e-08
-4.79246721e-08
-4.870734624e-08
-4.999725143e-08
-3.45687215e-06
-3.368657384e-07
-1.368818402e-07
-7.248094754e-08
-6.610607274e-08
-6.450372314e-08
-6.357819971e-08
-6.29610496e-08
-6.261510973e-08
-6.242513371e-08
-6.235698031e-08
-6.236376208e-08
-6.242471159e-08
-6.252925295e-08
-6.267940275e-08
-6.2878575e-08
-6.298925791e-08
-6.299825983e-08
-6.305054629e-08
-6.31330739e-08
-6.321904717e-08
-6.329087292e-08
-6.334784987e-08
-6.339704483e-08
-6.344192872e-08
-6.348271806e-08
-6.352107587e-08
-6.35574539e-08
-6.359195138e-08
-6.362521015e-08
-6.365678204e-08
-6.368690776e-08
-6.371558297e-08
-6.374371732e-08
-6.377009134e-08
-6.37953864e-08
-6.382099188e-08
-6.384421103e-08
-6.386646115e-08
-6.3888048e-08
-6.390892601e-08
-6.392818728e-08
-6.39467546e-08
-6.396418525e-08
-6.398120763e-08
-6.399672864e-08
-6.401142161e-08
-6.402493878e-08
-6.403696722e-08
-6.4048371e-08
-6.405847224e-08
-6.406779829e-08
-6.407485449e-08
-6.408373045e-08
-6.409710759e-08
-6.413630562e-08
-6.425773596e-08
-6.462813412e-08
-6.544041595e-08
-6.593162181e-08
-3.79942891e-06
-1.715810694e-06
1.085689727e-06
-1.813669729e-07
-6.381969605e-08
-5.48816336e-08
-5.439838656e-08
-5.458539836e-08
-5.482464003e-08
-5.506074956e-08
-5.528096491e-08
-5.548176573e-08
-5.568351409e-08
-5.588928807e-08
-5.610052478e-08
-5.631906443e-08
-5.650034599e-08
-5.665103983e-08
-5.682110136e-08
-5.699716708e-08
-5.715762289e-08
-5.72930227e-08
-5.740527297e-08
-5.750288292e-08
-5.759016916e-08
-5.766887048e-08
-5.774182771e-08
-5.780952811e-08
-5.787241772e-08
-5.793122024e-08
-5.798556228e-08
-5.803619159e-08
-5.808299402e-08
-5.812626005e-08
-5.816602102e-08
-5.820287644e-08
-5.823767341e-08
-5.827004289e-08
-5.830091341e-08
-5.833022027e-08
-5.835806114e-08
-5.838348779e-08
-5.84074693e-08
-5.842937871e-08
-5.844970956e-08
-5.846796687e-08
-5.848552051e-08
-5.85012961e-08
-5.851581127e-08
-5.852805842e-08
-5.853872038e-08
-5.854726049e-08
-5.855463332e-08
-5.856022541e-08
-5.856680132e-08
-5.857386234e-08
-5.858209227e-08
-5.855336752e-08
-5.828908075e-08
-5.766485395e-08
-9.388629045e-06
-7.007329689e-06
-9.615713368e-07
-3.404400753e-07
-4.852773012e-08
-3.897952171e-08
-4.063957921e-08
-4.164324582e-08
-4.233555329e-08
-4.281834985e-08
-4.318514651e-08
-4.345444322e-08
-4.36571159e-08
-4.383808484e-08
-4.400215523e-08
-4.414721125e-08
-4.428659688e-08
-4.441582705e-08
-4.456827352e-08
-4.473428834e-08
-4.48895463e-08
-4.502239645e-08
-4.513390993e-08
-4.523007771e-08
-4.531458436e-08
-4.539208967e-08
-4.546292183e-08
-4.552692463e-08
-4.558591799e-08
-4.564027969e-08
-4.568889153e-08
-4.573353981e-08
-4.577409583e-08
-4.581076888e-08
-4.584366496e-08
-4.587342436e-08
-4.5900388e-08
-4.592501813e-08
-4.594798542e-08
-4.596904815e-08
-4.598843934e-08
-4.600625906e-08
-4.602285509e-08
-4.603763762e-08
-4.605114013e-08
-4.606318062e-08
-4.60744875e-08
-4.608452896e-08
-4.609419438e-08
-4.610165926e-08
-4.610826978e-08
-4.61127333e-08
-4.611675945e-08
-4.611723792e-08
-4.61133693e-08
-4.608646582e-08
-4.599056662e-08
-4.567939745e-08
-4.491116338e-08
-4.401619176e-08
2.223874339e-05
-1.729982065e-05
-5.188579508e-06
-4.166626494e-07
-1.644684892e-07
-3.681063133e-08
-3.179658447e-08
-3.233419e-08
-3.306720138e-08
-3.367986605e-08
-3.406433404e-08
-3.435183549e-08
-3.453632595e-08
-3.466150986e-08
-3.478859616e-08
-3.488578033e-08
-3.496048649e-08
-3.502094546e-08
-3.51042059e-08
-3.520505481e-08
-3.531040767e-08
-3.540346466e-08
-3.548298488e-08
-3.555033164e-08
-3.560925885e-08
-3.56632002e-08
-3.571167539e-08
-3.575527519e-08
-3.579539643e-08
-3.583079878e-08
-3.586224057e-08
-3.58904519e-08
-3.591492474e-08
-3.593641028e-08
-3.595535498e-08
-3.597124862e-08
-3.598528169e-08
-3.599742315e-08
-3.600808797e-08
-3.601738778e-08
-3.60254381e-08
-3.603254663e-08
-3.603912902e-08
-3.604464904e-08
-3.605015847e-08
-3.605529936e-08
-3.605991165e-08
-3.606410921e-08
-3.606839827e-08
-3.607216324e-08
-3.607572729e-08
-3.607824249e-08
-3.608088812e-08
-3.607960259e-08
-3.607382399e-08
-3.603862554e-08
-3.592991002e-08
-3.561996461e-08
-3.498650542e-08
-3.436514323e-08
-1.420029818e-05
-2.18455504e-05
-1.90298846e-05
-3.019261477e-06
-1.379428032e-06
-1.175971893e-07
-1.583419946e-08
-2.371227361e-08
-2.692366112e-08
-2.835663977e-08
-2.906297528e-08
-2.939051635e-08
-2.961568624e-08
-2.974189443e-08
-2.983158064e-08
-2.991753115e-08
-2.996106482e-08
-2.996428031e-08
-2.999604511e-08
-3.005321465e-08
-3.011214534e-08
-3.017364339e-08
-3.021889433e-08
-3.025877712e-08
-3.029292248e-08
-3.032515922e-08
-3.035262056e-08
-3.037720763e-08
-3.039969968e-08
-3.041946812e-08
-3.043621682e-08
-3.045057493e-08
-3.04621941e-08
-3.04718958e-08
-3.047875363e-08
-3.04850072e-08
-3.04885118e-08
-3.049192219e-08
-3.049302426e-08
-3.049416444e-08
-3.049364568e-08
-3.049400639e-08
-3.049297811e-08
-3.049191777e-08
-3.049206968e-08
-3.049213521e-08
-3.049276205e-08
-3.049372115e-08
-3.049569371e-08
-3.049674882e-08
-3.049858115e-08
-3.050152484e-08
-3.050407251e-08
-3.050467064e-08
-3.050053635e-08
-3.047773099e-08
-3.040580985e-08
-3.021929244e-08
-2.988150558e-08
-2.958130969e-08
-0.0009119824925
-3.104694327e-05
-4.229752168e-05
-1.090381915e-05
-1.097290881e-06
2.173900364e-06
1.933992023e-07
-5.585058508e-09
-2.259535137e-08
-2.548551438e-08
-2.660472384e-08
-2.715637612e-08
-2.740920324e-08
-2.759485422e-08
-2.770083626e-08
-2.776866068e-08
-2.780934772e-08
-2.77968774e-08
-2.779398038e-08
-2.783020346e-08
-2.787908017e-08
-2.791814062e-08
-2.79487442e-08
-2.797872043e-08
-2.799777024e-08
-2.801833902e-08
-2.803556839e-08
-2.80503267e-08
-2.806393834e-08
-2.80749196e-08
-2.808338023e-08
-2.809183383e-08
-2.809770185e-08
-2.810172399e-08
-2.810213517e-08
-2.810337893e-08
-2.810333911e-08
-2.809928445e-08
-2.809728242e-08
-2.809293146e-08
-2.808809763e-08
-2.808287115e-08
-2.808268469e-08
-2.80726934e-08
-2.806998199e-08
-2.806799224e-08
-2.80663058e-08
-2.806525679e-08
-2.806537573e-08
-2.806620182e-08
-2.806824009e-08
-2.807079602e-08
-2.807402302e-08
-2.807662644e-08
-2.807710488e-08
-2.806813464e-08
-2.803625986e-08
-2.795652446e-08
-2.782396382e-08
-2.771309002e-08
0.0003327431988
2.398748228e-05
-6.873372517e-05
-3.193969408e-05
-3.330330132e-06
5.407164247e-08
-5.36118006e-08
-7.734732071e-09
-1.890152293e-08
-2.303232717e-08
-2.497471401e-08
-2.603680018e-08
-2.643025918e-08
-2.6695459e-08
-2.688834393e-08
-2.69566504e-08
-2.699012608e-08
-2.698900091e-08
-2.698489902e-08
-2.700499398e-08
-2.705001852e-08
-2.709150583e-08
-2.712125973e-08
-2.714453523e-08
-2.716393337e-08
-2.718008733e-08
-2.719383522e-08
-2.720644884e-08
-2.721802729e-08
-2.722776633e-08
-2.723554061e-08
-2.724155787e-08
-2.724591408e-08
-2.724840023e-08
-2.724875475e-08
-2.724758373e-08
-2.724504623e-08
-2.724086958e-08
-2.723569276e-08
-2.722977502e-08
-2.722238639e-08
-2.721628982e-08
-2.720947453e-08
-2.720286806e-08
-2.719749385e-08
-2.719331455e-08
-2.719021665e-08
-2.718815944e-08
-2.71873193e-08
-2.718774847e-08
-2.718946386e-08
-2.719221995e-08
-2.719595606e-08
-2.720005925e-08
-2.720383292e-08
-2.7204356e-08
-2.719709444e-08
-2.717465922e-08
-2.713787427e-08
-2.710719357e-08
0.0002458557782
-0.0002614156627
-5.701756732e-05
-8.452595159e-05
-1.085380567e-05
9.555545572e-07
3.55694512e-06
2.893950299e-07
6.619762345e-09
-1.7146846e-08
-2.290818081e-08
-2.502041315e-08
-2.582725406e-08
-2.628255357e-08
-2.654192047e-08
-2.664724142e-08
-2.669258647e-08
-2.668975665e-08
-2.669145484e-08
-2.671367231e-08
-2.67597841e-08
-2.680788795e-08
-2.684234756e-08
-2.686730929e-08
-2.688807548e-08
-2.690611239e-08
-2.692202193e-08
-2.693624694e-08
-2.694904926e-08
-2.696019958e-08
-2.696922047e-08
-2.697619316e-08
-2.698145846e-08
-2.698484594e-08
-2.698613042e-08
-2.698535926e-08
-2.69827592e-08
-2.697856715e-08
-2.697296096e-08
-2.696626564e-08
-2.695885074e-08
-2.695122266e-08
-2.694364988e-08
-2.693653116e-08
-2.693016325e-08
-2.692489683e-08
-2.692085289e-08
-2.691800746e-08
-2.691653005e-08
-2.691650451e-08
-2.691789521e-08
-2.692062827e-08
-2.692456581e-08
-2.69294587e-08
-2.69350355e-08
-2.694041802e-08
-2.694440075e-08
-2.694535012e-08
-2.694326261e-08
-2.693945484e-08
-0.0007658571876
-0.0001459231029
-4.920759934e-05
-0.0001919633011
-2.556208223e-05
4.417610986e-06
-7.194590379e-07
7.760227836e-08
5.067688862e-08
-5.439057894e-09
-1.957859638e-08
-2.390917758e-08
-2.542264894e-08
-2.598383758e-08
-2.629431047e-08
-2.64889974e-08
-2.656140537e-08
-2.653923281e-08
-2.655120703e-08
-2.659613836e-08
-2.665056746e-08
-2.669687788e-08
-2.673198517e-08
-2.67632618e-08
-2.678992356e-08
-2.681207409e-08
-2.683182181e-08
-2.684937203e-08
-2.686474136e-08
-2.68782622e-08
-2.68898381e-08
-2.689920615e-08
-2.690643652e-08
-2.691156804e-08
-2.691446428e-08
-2.691506867e-08
-2.691351033e-08
-2.691005161e-08
-2.690496124e-08
-2.689855266e-08
-2.689119885e-08
-2.688332537e-08
-2.687540948e-08
-2.686781894e-08
-2.686083436e-08
-2.685482048e-08
-2.685007868e-08
-2.68466372e-08
-2.684463156e-08
-2.684418624e-08
-2.684527124e-08
-2.684786308e-08
-2.685185876e-08
-2.685713367e-08
-2.68636072e-08
-2.687110345e-08
-2.687936905e-08
-2.688816707e-08
-2.689634825e-08
-2.690005668e-08
-0.0002989300988
-2.091367431e-05
-3.434791721e-05
-0.000337213996
-3.396558756e-05
1.738513829e-05
3.027952982e-06
4.706942867e-06
2.205644346e-07
1.761852824e-08
-1.423622053e-08
-2.234854276e-08
-2.484620811e-08
-2.570588498e-08
-2.610832966e-08
-2.631729229e-08
-2.639826162e-08
-2.644682442e-08
-2.647936031e-08
-2.651452478e-08
-2.657241667e-08
-2.662635866e-08
-2.667049742e-08
-2.671096059e-08
-2.674013761e-08
-2.676425563e-08
-2.678822582e-08
-2.681029033e-08
-2.682930078e-08
-2.684578645e-08
-2.686016846e-08
-2.687230525e-08
-2.688203613e-08
-2.688936137e-08
-2.68942695e-08
-2.689670846e-08
-2.689671319e-08
-2.689451753e-08
-2.689041987e-08
-2.688474695e-08
-2.687786524e-08
-2.687019157e-08
-2.686222709e-08
-2.685442639e-08
-2.684711523e-08
-2.684064625e-08
-2.68354065e-08
-2.683151962e-08
-2.682910471e-08
-2.682831032e-08
-2.682914131e-08
-2.683159461e-08
-2.683560129e-08
-2.684109428e-08
-2.684804788e-08
-2.685645543e-08
-2.686625398e-08
-2.687736143e-08
-2.688795752e-08
-2.689362696e-08
-0.000368155467
-4.339813439e-05
0.0002295279039
-0.000345617743
-3.621065945e-05
5.785514843e-05
1.154031234e-05
-1.569929134e-07
8.098875643e-07
8.997632996e-08
-4.399846161e-09
-2.010609756e-08
-2.409394361e-08
-2.530380043e-08
-2.582311913e-08
-2.615082462e-08
-2.631737399e-08
-2.635633339e-08
-2.639157265e-08
-2.644250491e-08
-2.65132799e-08
-2.657051305e-08
-2.662139745e-08
-2.666318465e-08
-2.669767071e-08
-2.67282772e-08
-2.675574302e-08