/*--------------------------------*- C++ -*----------------------------------*\
  =========                 |
  \\      /  F ield         | OpenFOAM: The Open Source CFD Toolbox
   \\    /   O peration     | Website:  https://openfoam.org
    \\  /    A nd           | Version:  10
     \\/     M anipulation  |
\*---------------------------------------------------------------------------*/
FoamFile
{
    format      ascii;
    class       volScalarField;
    location    "0.0250188088";
    object      ddt0(rho,C2H3);
}
// * * * * * * * * * * * * * * * * * * * * * * * * * * * * * * * * * * * * * //

dimensions      [1 -3 -1 0 0 0 0];

internalField   nonuniform List<scalar> 
5170
(
-1.16269747e-66
-1.162788079e-66
-1.162861674e-66
-1.16309845e-66
-1.163842952e-66
-1.172279739e-66
-1.172390158e-66
-1.172548941e-66
-1.172841015e-66
-1.173559986e-66
-1.172334082e-66
-1.172462854e-66
-1.172686409e-66
-1.17299335e-66
-1.173701023e-66
-1.172314851e-66
-1.172469946e-66
-1.172738449e-66
-1.173040734e-66
-1.17375832e-66
-1.172326534e-66
-1.172492892e-66
-1.172787279e-66
-1.173093754e-66
-1.180531504e-66
-1.900023463e-66
-1.306526866e-66
-1.184415406e-66
-2.391407054e-66
-5.180886064e-64
-2.980209421e-62
-5.91831638e-63
-6.2885e-64
-8.68869338e-62
-3.872768376e-59
-1.251729476e-57
-2.738418901e-58
-3.637493046e-59
-6.312350355e-57
-2.856400248e-54
-5.415794034e-53
-1.331999991e-53
-2.235224029e-54
-4.646488851e-52
-2.089394512e-49
-2.420516752e-48
-6.816685834e-49
-1.44644735e-49
-3.437049895e-47
-1.523799737e-44
-1.120623373e-43
-3.670985602e-44
-9.769044981e-45
-2.52699245e-42
-1.111796295e-39
-5.379348389e-39
-2.078052643e-39
-6.876996914e-40
-1.817169497e-37
-8.127008557e-35
-2.681466108e-34
-1.235373405e-34
-5.029331561e-35
-1.25163286e-32
-5.958908033e-30
-1.387344655e-29
-7.689505933e-30
-3.842758561e-30
-8.000678155e-28
-4.386753012e-25
-7.452937475e-25
-5.007296364e-25
-3.096860838e-25
-4.448649299e-23
-3.242572568e-20
-4.153105941e-20
-3.397172288e-20
-2.651060459e-20
-1.823956817e-18
-2.406396402e-15
-2.39878076e-15
-2.399259285e-15
-2.400115108e-15
-2.402264773e-15
-2.424941204e-15
-2.421168951e-15
-2.42154899e-15
-2.421961807e-15
-2.422667419e-15
-2.425094317e-15
-2.421318162e-15
-2.421680606e-15
-2.422078835e-15
-2.424608765e-15
-3.002146775e-15
-2.421318275e-15
-2.4217446e-15
3.860662299e-10
2.623020338e-10
1.453969101e-10
-8.201894641e-19
-1.04289479e-18
1.086292911e-18
1.066444692e-18
1.077904701e-18
-3.723172406e-19
-1.080225883e-19
1.589050119e-19
-4.858691825e-19
6.210265751e-19
-1.293165556e-19
1.776842643e-19
-3.390754248e-19
-3.223530483e-19
-1.14037853e-19
-2.207575523e-19
-3.045510747e-19
-1.810001128e-19
-1.495606853e-19
5.465761553e-18
5.868369201e-16
-1.897949403e-17
-2.132746439e-18
-3.437774937e-18
5.416548536e-16
-2.28297877e-13
1.068629875e-14
5.595869182e-16
5.014590821e-15
-7.309697385e-13
-5.839581809e-13
1.275827049e-12
-7.991423039e-13
-3.971348779e-12
2.562911315e-10
2.584393002e-10
1.133051127e-13
-4.684880286e-12
6.181763116e-10
3.66179949e-10
3.568146433e-10
5.656294687e-10
5.769258964e-10
-3.580316955e-10
-3.801455556e-10
2.557781115e-10
-4.702578068e-10
-2.383310572e-10
-4.994669864e-10
-2.076906419e-11
-2.445867768e-11
-3.315753444e-10
-1.379608158e-10
3.89367067e-10
-2.844506926e-11
-3.028951103e-11
2.092525877e-10
-5.096682652e-10
-3.85551637e-11
-6.525834394e-11
-2.802615591e-11
-2.237727921e-11
-1.664791065e-11
-1.631019263e-11
-1.103299397e-10
-7.305032861e-11
-3.388129377e-11
-2.119818904e-11
-4.875893017e-11
-1.427980181e-10
-1.396698961e-10
-6.287669112e-11
-4.891811585e-11
-1.188676922e-10
-4.018428535e-11
-9.448805328e-11
-1.269069803e-10
-1.12322923e-10
-1.63146919e-10
-9.706206654e-11
-3.09498142e-11
-1.626326413e-10
-1.593261062e-10
-4.330141514e-12
1.211323791e-10
-9.046761468e-11
-1.698941885e-11
-1.864541871e-11
-9.654964582e-11
9.419830834e-10
8.190006475e-11
-1.098937026e-10
-8.230462575e-11
6.078072293e-11
-9.59580328e-10
-1.989290715e-08
-9.407861539e-10
-6.846704997e-10
1.065921005e-10
-1.373668932e-10
6.611074942e-10
8.97349105e-11
-2.254649315e-10
-6.76575668e-08
-7.222399422e-09
-5.138880098e-11
-1.210807727e-09
-1.368356734e-09
9.821962486e-09
1.894976471e-08
-6.110426241e-11
-8.236870059e-10
6.266576741e-08
2.209838493e-09
1.037945944e-08
1.093969467e-10
-1.12976381e-09
1.853398019e-08
2.375757809e-09
6.690768557e-09
-2.708928613e-15
-1.246186886e-09
5.232429271e-10
2.333350526e-08
3.475877668e-07
-1.111317512e-09
-1.167071476e-09
-2.81427522e-09
-4.195183798e-08
-1.477490559e-07
-1.040285857e-09
-1.04123686e-09
1.107696159e-09
9.453979791e-09
-1.142742958e-08
-7.652268611e-10
4.73713206e-08
1.217659358e-09
1.771075533e-08
1.425149689e-07
-1.421843915e-09
1.847453255e-08
2.452853386e-09
2.329770967e-08
1.764707131e-07
-8.191518069e-10
2.750730411e-10
2.321562043e-09
6.104100145e-09
2.131733536e-08
-9.80785094e-10
-2.306921721e-10
-3.399091576e-09
-2.325505459e-08
3.699199707e-08
-2.825157087e-10
-1.209060652e-09
-7.036909805e-09
-4.328370926e-08
-2.379558272e-07
-2.250766642e-10
-1.02517633e-10
-9.225730701e-10
-1.481383198e-09
2.100367432e-08
3.343963892e-10
1.195779128e-09
4.732859749e-09
5.709032149e-09
2.315333444e-09
1.054472976e-09
5.789839431e-09
3.190880034e-08
1.353680929e-07
6.015998009e-07
1.315563761e-09
5.503572104e-09
2.843557753e-08
1.106214365e-07
2.645895835e-07
-1.927144723e-08
-7.612914311e-08
3.39193241e-08
-2.267159509e-07
-4.765162579e-06
-3.482413015e-08
-1.884172161e-07
-1.275357492e-06
-7.102894054e-07
-1.534745034e-06
1.781809273e-07
9.666670212e-07
-1.051022389e-07
4.837169338e-06
1.171462658e-05
5.149540635e-08
1.186891898e-07
9.641513427e-08
9.346406566e-07
4.387779204e-06
3.35491842e-08
8.529216945e-08
2.852592502e-07
1.065273797e-06
3.728193753e-06
4.343469698e-08
8.224952362e-08
2.083277158e-07
5.588928861e-07
1.487001327e-06
5.219618963e-08
6.938292993e-08
1.168901725e-07
2.216684465e-07
4.433932819e-07
5.51581486e-08
5.512723676e-08
2.460676497e-08
7.704031526e-08
1.20550527e-07
1.525135316e-08
1.642654831e-08
2.399983219e-08
1.6982236e-08
2.900302283e-08
4.491939502e-09
2.812512224e-09
3.03902913e-09
6.299888258e-09
5.588857986e-09
9.157268119e-10
9.106781017e-10
8.788091864e-10
9.926165385e-10
8.966756394e-10
1.800252379e-10
1.866644634e-10
1.809742588e-10
1.778887398e-10
1.6909988e-10
3.877417126e-11
3.811423304e-11
4.171439175e-11
3.010563622e-11
1.476302898e-11
8.794462386e-12
8.40127839e-12
5.90731869e-12
4.372713105e-12
1.827676504e-12
1.386937978e-11
1.430367351e-11
1.428707248e-11
5.477016476e-12
4.985979843e-12
2.697100363e-13
3.566137228e-13
5.11036907e-13
5.471954168e-13
4.644239298e-13
-2.949227335e-15
-1.256301991e-15
7.116178126e-14
7.776167089e-14
7.287723731e-14
2.242349055e-14
2.212097815e-14
2.147931019e-14
2.018415916e-14
1.953339562e-14
4.670589766e-15
6.895251522e-15
6.730381654e-15
5.341044472e-15
6.018857731e-15
3.874586847e-15
3.79607932e-15
3.686763163e-15
3.539750007e-15
2.69630337e-15
3.736076904e-15
3.715010576e-15
3.679525301e-15
3.539518055e-15
3.434001561e-15
2.313613949e-15
2.243065778e-15
3.489737676e-15
3.375786026e-15
3.200733704e-15
2.411826268e-15
2.42096441e-15
2.472147187e-15
2.573265353e-15
1.886376169e-15
7.714505266e-16
7.903788097e-16
-7.467515681e-16
3.597565457e-16
9.334714982e-16
3.194467407e-15
3.259381283e-15
3.446958415e-15
3.413193732e-15
1.5827184e-15
-8.925984234e-16
-9.458739349e-16
-1.195190252e-15
-4.746479538e-17
1.06912176e-15
-3.059377044e-15
2.199451414e-16
-2.303400816e-16
1.695826141e-16
5.137490634e-16
-1.273078285e-15
-1.118837332e-15
-9.651321831e-16
-8.055656472e-16
-8.252777983e-16
-1.060764147e-15
-7.785321752e-16
-4.150272611e-16
-1.49539795e-15
9.781476424e-16
2.514795862e-15
2.453021221e-15
2.227250234e-15
1.778716887e-15
5.410619439e-16
1.940146616e-15
2.027977491e-16
1.595376776e-16
1.859838369e-16
-3.595082983e-16
-9.793828195e-17
-1.045856235e-16
-7.974116804e-17
-6.268464372e-17
-2.799314256e-17
3.350039737e-17
3.8104812e-17
3.792666532e-17
6.061675508e-17
6.682478011e-17
-1.719749442e-16
-2.021863629e-16
-1.221166751e-16
6.808284719e-17
-4.738070842e-18
-5.677658554e-17
-5.158597574e-17
-5.874805871e-17
7.503938073e-18
1.20473664e-16
6.569673926e-17
7.22524686e-17
6.79055267e-17
5.438804444e-17
1.889311591e-17
-9.635442999e-17
-9.680987395e-17
-9.673678466e-17
-9.417150284e-17
-8.778786316e-17
-8.539108536e-17
-8.605545659e-17
-8.609444959e-17
-8.427224051e-17
-7.87505549e-17
3.385444592e-17
3.32108953e-17
3.249706682e-17
3.221798594e-17
3.358897355e-17
2.844285424e-18
2.961356705e-18
2.92638487e-18
-9.347060656e-18
-4.231279685e-17
-1.26735945e-16
-1.263479856e-16
-1.261087019e-16
-1.271396143e-16
-1.297275579e-16
-1.279206484e-16
-1.280288445e-16
-1.286237151e-16
-1.304464139e-16
-1.333948975e-16
-1.252027205e-16
-1.25168259e-16
-1.252939926e-16
-1.260140773e-16
-1.268120506e-16
-1.427352126e-17
-1.560223827e-17
-1.605322426e-17
-1.59132861e-17
-1.411018459e-17
5.772898559e-19
3.050333029e-19
4.08047434e-19
1.256358707e-19
-1.000983695e-19
-3.358876851e-19
-3.057945052e-19
-2.736956685e-19
-2.572064805e-19
-2.781523255e-19
2.134152902e-18
2.041786015e-18
1.669924203e-18
5.669703089e-19
-1.662042078e-18
1.641574965e-16
1.654739026e-16
1.662663451e-16
1.650466164e-16
1.557564679e-16
1.654938947e-16
1.668118159e-16
1.674400814e-16
1.659843552e-16
1.563718335e-16
1.638074562e-16
1.651782369e-16
1.65946217e-16
1.647992155e-16
1.557779606e-16
2.717908364e-17
2.724650366e-17
2.703047647e-17
2.615472797e-17
2.401710621e-17
1.122969909e-17
1.129853305e-17
1.144096041e-17
1.167182385e-17
1.242591778e-17
1.013302423e-17
1.003329123e-17
9.768609791e-18
9.51539321e-18
9.209967986e-18
2.060388539e-17
2.03073276e-17
1.963635942e-17
1.844575379e-17
1.791691463e-17
1.797162445e-08
-8.816339092e-07
-2.127644498e-07
-1.443069292e-07
1.633871152e-07
1.208715953e-06
1.381240818e-06
2.56122928e-07
6.907625625e-07
1.790223124e-07
8.417364956e-07
-6.437758739e-07
-1.121621866e-07
2.723493862e-07
-1.113637812e-06
5.494690906e-07
-1.262698295e-06
-1.052080769e-05
7.220140238e-07
1.111125473e-05
9.1299828e-06
3.094197626e-06
7.623398769e-07
1.739535518e-07
4.234838773e-08
5.567175811e-09
1.005112455e-09
1.701036422e-10
-1.408481655e-11
-9.636863437e-13
2.114733216e-12
3.684777031e-13
7.648355082e-14
1.949865765e-14
5.533053984e-15
1.020413845e-15
3.543116024e-15
2.828462387e-15
1.812859335e-15
3.639183573e-15
-2.426406158e-15
1.278019672e-16
2.436006333e-16
-1.605368396e-15
2.460174318e-15
7.925636915e-16
1.126043489e-15
-8.158181176e-17
7.945677641e-17
-2.32089022e-17
1.304547885e-16
-6.648551125e-17
-7.846710342e-17
-6.513110877e-17
3.101391195e-17
-5.003081375e-17
-1.302463237e-16
-1.339341885e-16
-1.249111276e-16
-1.174530675e-17
-1.174577601e-20
-3.512059569e-20
3.132954092e-18
1.394271913e-16
1.397758889e-16
1.398238854e-16
2.169141162e-17
1.488683219e-17
8.356378729e-18
1.661594558e-17
-1.666250041e-08
-9.14368914e-09
-3.390242465e-09
-2.406091075e-10
-2.976188737e-11
-1.583468272e-06
7.685560913e-06
-2.067243358e-06
-5.661991527e-09
2.590414699e-10
-9.516994775e-08
-1.520812861e-06
8.178349779e-07
1.132589738e-07
-9.250340244e-10
-1.705019906e-07
1.491103465e-05
-6.127090922e-05
-2.08593464e-06
-2.768024416e-07
3.176394064e-06
3.94648679e-05
8.13709233e-05
1.910712309e-05
-2.949521308e-09
4.875558339e-06
7.380593678e-05
-0.0002833439312
5.96745743e-05
4.275270761e-06
5.012746234e-07
-8.409840246e-05
-0.0002364677049
-6.895757462e-05
1.985168774e-06
3.051420453e-06
4.623247124e-05
0.0006838547168
1.622324942e-05
-6.453013908e-07
1.027104809e-06
-1.727940629e-05
-0.0001968175924
-0.003048384174
-0.0002158060075
8.277901902e-07
1.112135528e-05
3.214451501e-05
0.0001896181371
6.427711113e-05
-9.460268601e-07
2.05602123e-06
-4.90089894e-05
0.000447766873
1.527445948e-05
1.832124504e-07
-1.250737652e-06
3.236095713e-05
0.0004265587428
-0.0002136574446
9.525813277e-08
-0.0001083482676
-1.067000613e-05
-3.889044894e-05
5.522142336e-05
2.363743202e-06
2.92984164e-05
5.702914938e-06
6.903020971e-07
-5.507650617e-05
-2.527052851e-07
3.551517547e-05
1.800971104e-06
3.202294132e-06
0.001731604906
1.096480414e-06
3.438094903e-05
9.712729098e-07
5.87633654e-06
-0.0009338455579
-8.149317408e-07
6.815336175e-06
-1.226338804e-05
-9.441494283e-05
-0.0001487704889
-3.166218904e-06
-8.587261918e-06
-4.21023101e-05
-0.0001659051296
-5.093365422e-05
-4.586601909e-07
3.615687146e-06
4.730901221e-05
0.000287888473
0.0001160817241
2.289054727e-05
4.492720965e-05
-0.0002478192872
-0.002979219584
-0.01362143279
2.130250787e-05
7.164625385e-05
0.0001442050319
-0.0001327321725
-0.001842504623
6.830907299e-06
2.117111133e-05
4.961714395e-05
6.149821281e-05
-5.911809042e-05
1.482943222e-06
3.844638645e-06
8.207476592e-06
1.212353207e-05
5.811708684e-06
2.861482388e-07
5.855010627e-07
1.047264322e-06
1.459417298e-06
1.119716339e-06
5.015832334e-08
8.330926073e-08
1.207554384e-07
1.489230588e-07
1.228745647e-07
7.365996379e-09
9.157387715e-09
1.088865534e-08
1.157739046e-08
9.744052369e-09
1.118930283e-09
1.128510019e-09
1.389368455e-09
1.172158136e-09
9.741323653e-10
1.863524807e-10
1.802004276e-10
2.152300403e-10
8.425415358e-11
-1.033706209e-10
-3.652521123e-11
7.148907778e-12
1.212532127e-12
2.085293259e-11
-1.855099107e-11
-5.158713453e-12
3.065799578e-11
-1.029255053e-11
1.780133352e-12
-2.022005985e-12
6.535424655e-13
1.239423973e-12
-1.361877223e-13
4.930670031e-13
2.649595701e-13
3.272240565e-13
2.640303223e-13
-2.697375465e-13
1.058753002e-13
2.25326686e-13
6.653529816e-14
6.658816734e-14
5.579897753e-14
1.73738673e-14
1.980538134e-14
2.795032675e-14
-1.486880773e-15
1.520663121e-14
1.270768096e-14
7.604746435e-15
2.963666247e-15
2.990984395e-16
8.655016878e-15
-2.953928509e-15
-1.080781078e-14
-2.557809162e-15
4.70181062e-15
-3.936893929e-15
-7.881014726e-16
7.399350315e-17
3.486008055e-15
7.746736532e-15
7.039721877e-15
2.591421808e-15
1.209097126e-15
2.582582193e-15
2.684178861e-15
6.076894982e-15
-7.340344493e-15
7.660551324e-16
1.872117839e-15
5.453901087e-15
6.352664699e-15
-8.289043975e-15
1.024470004e-15
2.881989507e-15
4.017436524e-15
-1.067504144e-14
-3.213265157e-15
-4.967611391e-15
-4.295162536e-15
-9.532791607e-16
-1.580874337e-15
3.12620349e-16
-1.079192572e-15
-9.750963901e-16
-4.519727547e-16
3.727457635e-16
-4.869606996e-16
-5.585411271e-17
-6.589998721e-16
-4.031939373e-16
-6.184578905e-17
-1.106638083e-16
-7.177420643e-16
-1.085870781e-15
-3.120678934e-16
1.772421046e-15
1.228063106e-15
8.148274248e-16
2.460716429e-15
2.468451787e-17
4.697757744e-16
-1.870627815e-16
3.187770608e-16
9.035510553e-16
1.628837049e-15
5.902756679e-15
9.816393572e-15
-1.707140376e-15
8.25172159e-16
-2.112247391e-15
-2.037507184e-15
-7.667805873e-16
9.407131141e-17
-1.868929724e-16
-3.1186006e-16
-1.389682612e-16
-5.7649559e-17
2.812819177e-16
-1.989600395e-16
-5.137345798e-17
3.20734931e-17
2.81636182e-16
6.175876564e-15
1.245920387e-17
1.543516396e-15
-3.448804758e-17
2.919880606e-17
-3.078574872e-17
1.593331833e-16
-1.002676453e-16
-1.160683295e-16
-1.066771822e-16
-9.888361646e-17
-1.100394557e-16
-1.156458374e-16
-1.113941135e-16
-1.049639072e-16
-8.923454769e-17
-9.563622074e-17
-9.829997076e-17
-9.011189348e-17
-5.793172709e-17
-1.65575403e-17
-7.481945332e-17
1.536449339e-17
2.680090563e-17
3.868130891e-17
-1.534362834e-17
3.866463609e-17
-1.95770753e-17
-5.386796025e-17
-6.671213781e-17
-1.090985056e-16
-5.987966586e-17
-1.030264135e-16
-1.264781386e-16
-1.401651756e-16
-1.489780459e-16
-1.35889859e-16
-1.433542162e-16
-1.500303884e-16
-1.542264555e-16
-1.554968514e-16
-1.398942984e-16
-1.456294531e-16
-1.490143894e-16
-1.474206314e-16
-1.382802547e-16
-1.264496512e-16
-1.216612832e-16
-1.108087211e-16
-9.293350898e-17
-2.921296665e-17
-1.763183448e-17
-1.924746017e-17
-1.496184951e-17
-2.019696748e-18
-1.033898054e-19
5.135298125e-20
2.158222702e-20
8.181084308e-21
3.075365972e-19
7.364978207e-19
4.010511419e-19
9.293995502e-19
1.185765187e-18
1.673328145e-18
1.087809574e-17
9.011742856e-18
1.200173378e-17
1.706579508e-16
1.817629699e-16
1.830222459e-16
1.749571708e-16
1.819056484e-16
1.831960278e-16
1.830857243e-16
1.839651972e-16
1.755891731e-16
1.825170862e-16
1.829547543e-16
1.833212419e-16
1.848199322e-16
1.765944095e-16
1.846783725e-16
1.75164103e-16
4.061763526e-17
3.027983341e-17
2.57063478e-17
2.673353896e-17
1.550456259e-17
1.644423479e-17
1.733150889e-17
1.585473708e-17
7.257477571e-18
8.778470031e-18
8.792585464e-18
7.321117165e-18
9.459334772e-18
1.009923835e-17
1.206627099e-17
1.299055292e-17
1.391528035e-17
5.489069973e-18
-1.123272444e-16
1.50591115e-16
-9.93834094e-17
-2.707529074e-17
-2.77310072e-13
-2.945892119e-12
2.521319209e-14
1.167080375e-14
-1.395609498e-23
-1.395550682e-23
-1.395554957e-23
-1.395575351e-23
-1.395599169e-23
-1.395621029e-23
-1.395639266e-23
-1.395654186e-23
-1.395666721e-23
-1.395677756e-23
-1.395687784e-23
-1.395437912e-23
-1.395478527e-23
-1.395714376e-23
-1.395722331e-23
-1.395729853e-23
-1.395737009e-23
-1.395743827e-23
-1.395750328e-23
-1.395756536e-23
-1.39576247e-23
-1.395768147e-23
-1.395773582e-23
-1.39577879e-23
-1.395783784e-23
-1.395788574e-23
-1.395793171e-23
-1.395797584e-23
-1.395801823e-23
-1.395805896e-23
-1.39580981e-23
-1.395813572e-23
-1.395817189e-23
-1.395820667e-23
-1.395824011e-23
-1.395827228e-23
-1.395830324e-23
-1.395833303e-23
-1.395836169e-23
-1.395838927e-23
-1.395841581e-23
-1.395844136e-23
-1.395846596e-23
-1.395848963e-23
-1.395851243e-23
-1.395853438e-23
-1.395855551e-23
-1.395857586e-23
-1.395859546e-23
-1.395861434e-23
-1.395863252e-23
-1.395865036e-23
-1.395867115e-23
-1.395873431e-23
-1.395891865e-23
-1.395914005e-23
1.007393564e-11
5.425368307e-12
4.21788749e-13
1.682434536e-14
-1.395831953e-23
-1.395785352e-23
-1.395775645e-23
-1.395785234e-23
-1.395804953e-23
-1.395829135e-23
-1.39585462e-23
-1.395879535e-23
-1.395902122e-23
-1.395921589e-23
-1.39593819e-23
-1.395650424e-23
-1.395725437e-23
-1.395977086e-23
-1.395987623e-23
-1.395997269e-23
-1.396006203e-23
-1.396014528e-23
-1.396022323e-23
-1.396029648e-23
-1.396036554e-23
-1.396043079e-23
-1.396049259e-23
-1.396055123e-23
-1.396060695e-23
-1.396065999e-23
-1.396071053e-23
-1.396075875e-23
-1.396080479e-23
-1.39608488e-23
-1.396089089e-23
-1.396093117e-23
-1.396096975e-23
-1.396100672e-23
-1.396104216e-23
-1.396107617e-23
-1.396110879e-23
-1.396114002e-23
-1.396117001e-23
-1.396119891e-23
-1.396122663e-23
-1.396125325e-23
-1.396127883e-23
-1.396130343e-23
-1.396132707e-23
-1.396134981e-23
-1.396137168e-23
-1.396139272e-23
-1.396141295e-23
-1.396143243e-23
-1.396145137e-23
-1.396147163e-23
-1.396150647e-23
-1.396161341e-23
-1.396185511e-23
-1.396208181e-23
2.692659038e-11
1.486783621e-10
-2.873794684e-13
2.592096332e-14
-1.395739247e-23
-1.395689897e-23
-1.395682272e-23
-1.395696287e-23
-1.395722363e-23
-1.395754831e-23
-1.395789581e-23
-1.395823478e-23
-1.395854553e-23
-1.395881864e-23
-1.395905099e-23
-1.395577523e-23
-1.395686258e-23
-1.395957205e-23
-1.39597072e-23
-1.395982859e-23
-1.395993879e-23
-1.39600395e-23
-1.396013212e-23
-1.396021781e-23
-1.396029747e-23
-1.396037186e-23
-1.396044157e-23
-1.39605071e-23
-1.396056886e-23
-1.396062721e-23
-1.396068245e-23
-1.396073483e-23
-1.396078458e-23
-1.39608319e-23
-1.396087696e-23
-1.396091992e-23
-1.39609609e-23
-1.396100005e-23
-1.396103747e-23
-1.396107327e-23
-1.396110754e-23
-1.396114027e-23
-1.396117154e-23
-1.396120159e-23
-1.396123053e-23
-1.396125826e-23
-1.396128481e-23
-1.39613103e-23
-1.396133478e-23
-1.396135829e-23
-1.396138088e-23
-1.39614026e-23
-1.396142349e-23
-1.396144369e-23
-1.396146397e-23
-1.396148861e-23
-1.396153919e-23
-1.39616745e-23
-1.396191421e-23
-1.396209509e-23
-9.456637754e-09
-6.672827908e-11
-8.054212881e-13
-7.187661175e-13
-1.395626889e-23
-1.395528494e-23
-1.395507542e-23
-1.395525344e-23
-1.3955637e-23
-1.395612895e-23
-1.395666798e-23
-1.395721014e-23
-1.395772309e-23
-1.39581812e-23
-1.395856721e-23
-1.395489238e-23
-1.395634619e-23
-1.395934341e-23
-1.395951863e-23
-1.395967028e-23
-1.395980464e-23
-1.395992523e-23
-1.396003444e-23
-1.396013406e-23
-1.396022551e-23
-1.396030992e-23
-1.396038822e-23
-1.396046116e-23
-1.396052935e-23
-1.396059331e-23
-1.396065346e-23
-1.396071018e-23
-1.396076377e-23
-1.396081449e-23
-1.396086259e-23
-1.396090826e-23
-1.396095169e-23
-1.396099303e-23
-1.396103243e-23
-1.396107001e-23
-1.396110589e-23
-1.396114023e-23
-1.396117296e-23
-1.396120412e-23
-1.396123403e-23
-1.396126283e-23
-1.396129043e-23
-1.396131682e-23
-1.396134211e-23
-1.396136639e-23
-1.396138969e-23
-1.396141207e-23
-1.396143361e-23
-1.39614546e-23
-1.396147673e-23
-1.396150757e-23
-1.396157413e-23
-1.396172657e-23
-1.396195304e-23
-1.396210439e-23
-1.353252276e-08
-1.255042049e-10
-1.091555072e-12
-6.784493377e-12
6.709248412e-13
-1.395509686e-23
-1.395462189e-23
-1.395464074e-23
-1.395490988e-23
-1.395531781e-23
-1.395580819e-23
-1.395634561e-23
-1.39569007e-23
-1.395744436e-23
-1.395794657e-23
-1.395376661e-23
-1.395560495e-23
-1.395905299e-23
-1.395929279e-23
-1.395948946e-23
-1.395965606e-23
-1.395980098e-23
-1.395992947e-23
-1.396004485e-23
-1.396014942e-23
-1.396024487e-23
-1.396033254e-23
-1.396041349e-23
-1.396048857e-23
-1.39605585e-23
-1.396062384e-23
-1.39606851e-23
-1.396074268e-23
-1.396079694e-23
-1.396084816e-23
-1.396089662e-23
-1.396094254e-23
-1.396098611e-23
-1.396102751e-23
-1.396106689e-23
-1.396110439e-23
-1.396114018e-23
-1.396117439e-23
-1.396120694e-23
-1.396123789e-23
-1.396126752e-23
-1.396129604e-23
-1.396132341e-23
-1.396134956e-23
-1.396137458e-23
-1.396139859e-23
-1.396142166e-23
-1.396144394e-23
-1.396146612e-23
-1.396149096e-23
-1.396152888e-23
-1.396160961e-23
-1.396177156e-23
-1.396198341e-23
-1.396211148e-23
1.328163084e-07
1.178586754e-09
-3.033311552e-12
-1.175493071e-11
-6.798110983e-13
-1.395552866e-23
-1.395463929e-23
-1.395441381e-23
-1.395454991e-23
-1.395487057e-23
-1.395529347e-23
-1.395577586e-23
-1.395629241e-23
-1.395682394e-23
-1.395734864e-23
-1.395253377e-23
-1.39547063e-23
-1.395868837e-23
-1.3959009e-23
-1.395926897e-23
-1.39594819e-23
-1.395966024e-23
-1.395981348e-23
-1.395994797e-23
-1.396006781e-23
-1.396017579e-23
-1.396027389e-23
-1.396036363e-23
-1.396044618e-23
-1.396052251e-23
-1.396059338e-23
-1.396065944e-23
-1.396072121e-23
-1.396077914e-23
-1.39608336e-23
-1.396088493e-23
-1.39609334e-23
-1.396097924e-23
-1.396102268e-23
-1.396106389e-23
-1.396110303e-23
-1.396114027e-23
-1.396117578e-23
-1.396120968e-23
-1.396124195e-23
-1.396127261e-23
-1.396130187e-23
-1.396132997e-23
-1.396135698e-23
-1.396138285e-23
-1.396140756e-23
-1.396143129e-23
-1.396145438e-23
-1.396147798e-23
-1.396150622e-23
-1.396155205e-23
-1.396164464e-23
-1.396181105e-23
-1.396200906e-23
-1.396211784e-23
3.719941371e-07
9.210314459e-09
-2.302594952e-11
-1.265476657e-12
-3.294806232e-12
7.510458811e-14
-1.395485419e-23
-1.395433235e-23
-1.395431525e-23
-1.39545513e-23
-1.395491923e-23
-1.395535948e-23
-1.395584028e-23
-1.395634321e-23
-1.395685213e-23
-1.395138865e-23
-1.395381957e-23
-1.395828961e-23
-1.395867927e-23
-1.395900631e-23
-1.39592756e-23
-1.395949721e-23
-1.395968249e-23
-1.395984086e-23
-1.395997905e-23
-1.396010157e-23
-1.39602115e-23
-1.396031103e-23
-1.396040179e-23
-1.396048507e-23
-1.396056188e-23
-1.396063304e-23
-1.396069923e-23
-1.3960761e-23
-1.396081884e-23
-1.396087313e-23
-1.396092422e-23
-1.39609724e-23
-1.396101791e-23
-1.396106097e-23
-1.396110179e-23
-1.396114053e-23
-1.396117736e-23
-1.396121243e-23
-1.396124587e-23
-1.396127773e-23
-1.396130804e-23
-1.396133688e-23
-1.396136449e-23
-1.396139102e-23
-1.396141654e-23
-1.396144109e-23
-1.396146518e-23
-1.396149053e-23
-1.396152262e-23
-1.396157642e-23
-1.396167867e-23
-1.396184628e-23
-1.396203171e-23
-1.396212291e-23
5.252531893e-08
-6.043127773e-09
-1.17783167e-09
-4.036231168e-11
2.361519886e-10
7.226743004e-13
-1.395542506e-23
-1.395444526e-23
-1.395417588e-23
-1.395429415e-23
-1.395460113e-23
-1.395500661e-23
-1.395546449e-23
-1.395594967e-23
-1.395644421e-23
-1.395040237e-23
-1.395303964e-23
-1.395790735e-23
-1.395834006e-23
-1.395872061e-23
-1.395904417e-23
-1.395931319e-23
-1.395953605e-23
-1.395972292e-23
-1.395988267e-23
-1.396002187e-23
-1.396014508e-23
-1.396025544e-23
-1.396035518e-23
-1.396044598e-23
-1.396052916e-23
-1.396060576e-23
-1.396067663e-23
-1.396074245e-23
-1.396080381e-23
-1.396086118e-23
-1.396091497e-23
-1.396096553e-23
-1.396101316e-23
-1.396105812e-23
-1.396110062e-23
-1.396114088e-23
-1.396117907e-23
-1.396121535e-23
-1.396124985e-23
-1.396128272e-23
-1.396131407e-23
-1.396134394e-23
-1.396137235e-23
-1.396139945e-23
-1.396142549e-23
-1.396145082e-23
-1.396147616e-23
-1.396150376e-23
-1.396154036e-23
-1.396160181e-23
-1.396171169e-23
-1.396187844e-23
-1.39620525e-23
-1.396212772e-23
-8.233613249e-06
1.681203574e-07
1.322993129e-08
-8.408222939e-11
-1.085844317e-11
-5.186972361e-12
3.559459234e-13
-1.395486652e-23
-1.395421022e-23
-1.395412045e-23
-1.39543226e-23
-1.395467371e-23
-1.395510393e-23
-1.395557575e-23
-1.395606394e-23
-1.394949661e-23
-1.395231938e-23
-1.395754645e-23
-1.395800653e-23
-1.395842635e-23
-1.395879631e-23
-1.395911165e-23
-1.395937501e-23
-1.395959425e-23
-1.395977877e-23
-1.395993688e-23
-1.396007482e-23
-1.396019697e-23
-1.396030638e-23
-1.396040524e-23
-1.396049521e-23
-1.396057758e-23
-1.396065337e-23
-1.396072343e-23
-1.396078846e-23
-1.396084903e-23
-1.396090561e-23
-1.396095863e-23
-1.396100842e-23
-1.39610553e-23
-1.396109952e-23
-1.396114131e-23
-1.396118087e-23
-1.396121838e-23
-1.396125399e-23
-1.396128784e-23
-1.396132007e-23
-1.396135081e-23
-1.396138014e-23
-1.396140811e-23
-1.396143492e-23
-1.396146105e-23
-1.396148758e-23
-1.396151761e-23
-1.39615591e-23
-1.396162772e-23
-1.396174346e-23
-1.396190796e-23
-1.396207178e-23
-1.396213176e-23
4.718529869e-06
2.71679586e-07
-4.999658469e-09
-1.303572073e-09
-5.120671083e-11
-4.228947317e-13
-3.027715518e-12
-1.395558984e-23
-1.39544219e-23
-1.395402391e-23
-1.395407707e-23
-1.395435125e-23
-1.395474155e-23
-1.395519449e-23
-1.395567581e-23
-1.394858698e-23
-1.395158542e-23
-1.39571828e-23
-1.395766608e-23
-1.395811858e-23
-1.395852958e-23
-1.395888976e-23
-1.395919601e-23
-1.395945191e-23
-1.395966542e-23
-1.39598456e-23
-1.396000034e-23
-1.396013557e-23
-1.396025545e-23
-1.396036292e-23
-1.396046007e-23
-1.39605485e-23
-1.396062946e-23
-1.396070395e-23
-1.39607728e-23
-1.396083667e-23
-1.396089613e-23
-1.396095167e-23
-1.396100368e-23
-1.396105251e-23
-1.396109846e-23
-1.396114179e-23
-1.396118273e-23
-1.396122148e-23
-1.39612582e-23
-1.396129306e-23
-1.396132618e-23
-1.396135772e-23
-1.396138779e-23
-1.396141657e-23
-1.396144425e-23
-1.39614714e-23
-1.396149941e-23
-1.396153229e-23
-1.396157881e-23
-1.3961654e-23
-1.396177411e-23
-1.396193546e-23
-1.396209e-23
-1.396213543e-23
2.227155814e-06
-2.015401309e-05
-1.410518579e-07
-1.829128645e-08
-6.569244578e-10
1.597028682e-12
-1.512228531e-12
-7.372230235e-13
-1.395514544e-23
-1.395423852e-23
-1.395400452e-23
-1.395413534e-23
-1.395444793e-23
-1.395485764e-23
-1.395531531e-23
-1.39477101e-23
-1.395086348e-23
-1.395681935e-23
-1.395731898e-23
-1.395779701e-23
-1.39582428e-23
-1.395864454e-23
-1.395899439e-23
-1.395929077e-23
-1.395953824e-23
-1.395974499e-23
-1.395991984e-23
-1.39600703e-23
-1.396020198e-23
-1.396031885e-23
-1.396042369e-23
-1.396051854e-23
-1.396060492e-23
-1.396068403e-23
-1.396075683e-23
-1.396082411e-23
-1.396088654e-23
-1.396094465e-23
-1.396099892e-23
-1.396104974e-23
-1.396109744e-23
-1.396114233e-23
-1.396118465e-23
-1.396122464e-23
-1.396126247e-23
-1.396129833e-23
-1.396133237e-23
-1.396136473e-23
-1.396139555e-23
-1.396142503e-23
-1.396145352e-23
-1.396148181e-23
-1.396151172e-23
-1.396154786e-23
-1.396159942e-23
-1.396168054e-23
-1.396180381e-23
-1.396196151e-23
-1.396210755e-23
-1.396213874e-23
-1.124429943e-05
-2.068599674e-06
-1.743446725e-07
-2.036346992e-08
-8.994721206e-10
1.525656118e-11
1.607933397e-12
-2.165403957e-12
-1.395636409e-23
-1.395491435e-23
-1.395424038e-23
-1.395413076e-23
-1.395431389e-23
-1.395464682e-23
-1.395505559e-23
-1.394699641e-23
-1.395026841e-23
-1.395650023e-23
-1.395700035e-23
-1.395748891e-23
-1.395795597e-23
-1.395838875e-23
-1.395877616e-23
-1.395911181e-23
-1.395939552e-23
-1.395963261e-23
-1.395983122e-23
-1.395999973e-23
-1.396014511e-23
-1.39602726e-23
-1.396038589e-23
-1.396048763e-23
-1.396057974e-23
-1.396066367e-23
-1.396074058e-23
-1.396081139e-23
-1.396087685e-23
-1.39609376e-23
-1.396099416e-23
-1.396104699e-23
-1.396109647e-23
-1.396114292e-23
-1.396118664e-23
-1.396122786e-23
-1.39612668e-23
-1.396130365e-23
-1.396133859e-23
-1.396137178e-23
-1.396140337e-23
-1.396143363e-23
-1.396146302e-23
-1.396149259e-23
-1.396152462e-23
-1.396156424e-23
-1.396162073e-23
-1.396170704e-23
-1.39618324e-23
-1.396198606e-23
-1.396212434e-23
-1.396214169e-23
-4.330631455e-05
-2.962265028e-06
-2.672879382e-08
-3.237896599e-08
-7.513036318e-10
1.802867774e-10
1.335717814e-11
-2.091260146e-12
-1.39577607e-23
-1.39560729e-23
-1.395487413e-23
-1.395440509e-23
-1.395439984e-23
-1.395462383e-23
-1.395496057e-23
-1.394658123e-23
-1.394992924e-23
-1.395628411e-23
-1.395676347e-23
-1.395724114e-23
-1.395770855e-23
-1.395815338e-23
-1.395856328e-23
-1.395892839e-23
-1.39592439e-23
-1.395951084e-23
-1.39597348e-23
-1.395992347e-23
-1.396008441e-23
-1.396022386e-23
-1.39603465e-23
-1.39604557e-23
-1.396055391e-23
-1.396064291e-23
-1.396072408e-23
-1.396079852e-23
-1.39608671e-23
-1.396093054e-23
-1.396098943e-23
-1.39610443e-23
-1.396109556e-23
-1.396114358e-23
-1.396118869e-23
-1.396123114e-23
-1.396127118e-23
-1.396130902e-23
-1.396134486e-23
-1.396137886e-23
-1.396141124e-23
-1.396144232e-23
-1.396147275e-23
-1.396150377e-23
-1.396153813e-23
-1.396158137e-23
-1.396164267e-23
-1.39617335e-23
-1.396186002e-23
-1.396200939e-23
-1.396214052e-23
-1.396214416e-23
-9.278040613e-06
-5.295560795e-07
2.028633286e-05
8.575101661e-08
2.77244549e-08
2.357459934e-09
9.838351467e-11
1.449104828e-11
2.132733889e-12
-1.395751532e-23
-1.395595897e-23
-1.395501437e-23
-1.395472501e-23
-1.395480789e-23
-1.395505733e-23
-1.394654221e-23
-1.394992777e-23