/*--------------------------------*- C++ -*----------------------------------*\
  =========                 |
  \\      /  F ield         | OpenFOAM: The Open Source CFD Toolbox
   \\    /   O peration     | Website:  https://openfoam.org
    \\  /    A nd           | Version:  10
     \\/     M anipulation  |
\*---------------------------------------------------------------------------*/
FoamFile
{
    format      ascii;
    class       volScalarField;
    location    "0.0250188088";
    object      ddt0(rho,C2H5);
}
// * * * * * * * * * * * * * * * * * * * * * * * * * * * * * * * * * * * * * //

dimensions      [1 -3 -1 0 0 0 0];

internalField   nonuniform List<scalar> 
5170
(
9.832197446e-09
9.834031618e-09
9.848986489e-09
1.002781909e-08
-1.116645354e-10
8.770342424e-09
8.799213456e-09
8.824707573e-09
8.917853851e-09
9.362061013e-09
7.322037139e-09
7.365561845e-09
7.404152765e-09
7.403074717e-09
7.062737537e-09
5.664381995e-09
5.642163026e-09
5.603401148e-09
5.525487034e-09
5.154383045e-09
5.260597064e-09
5.173061708e-09
5.060746873e-09
4.925586286e-09
4.64605235e-09
5.507771707e-09
5.393623321e-09
5.251312882e-09
5.099416921e-09
4.816140904e-09
5.749857677e-09
5.62286501e-09
5.446268888e-09
5.22005321e-09
6.341417968e-09
5.87127752e-09
5.735699718e-09
5.525049852e-09
5.15374892e-09
7.813774334e-09
5.91409929e-09
5.774885129e-09
5.554402969e-09
5.08334335e-09
7.624173824e-09
5.922842014e-09
5.784332958e-09
5.578864412e-09
5.104573443e-09
5.986232706e-09
5.920576481e-09
5.783766443e-09
5.60317197e-09
5.210385021e-09
4.824010127e-09
5.915585854e-09
5.780600793e-09
5.62114104e-09
5.336444547e-09
4.663979379e-09
5.909442948e-09
5.77643679e-09
5.631463305e-09
5.424249854e-09
4.841923319e-09
5.902904528e-09
5.772006728e-09
5.637464106e-09
5.469923998e-09
4.975830455e-09
5.896518279e-09
5.768261995e-09
5.642763807e-09
5.489769214e-09
5.032325852e-09
5.891847894e-09
5.767366156e-09
5.649590914e-09
5.499157209e-09
5.05218688e-09
5.891725413e-09
5.770933469e-09
5.660227581e-09
5.50816567e-09
5.059252083e-09
5.894644197e-09
5.77843365e-09
5.673401756e-09
5.51750581e-09
5.065337639e-09
5.900755555e-09
5.785016452e-09
5.632640271e-09
4.850567612e-09
1.411153507e-09
5.599391346e-09
-4.939176442e-10
3.152663887e-08
-1.066062305e-08
-2.684996202e-08
-1.76026806e-23
-2.221703073e-23
2.330728948e-23
2.288185247e-23
2.316821668e-23
-6.464812697e-24
-6.297583842e-26
-8.678454575e-24
-8.322449852e-24
9.521311027e-24
2.534940487e-23
1.489539828e-23
-6.987520667e-24
5.214606094e-23
-5.783768894e-23
-4.965709657e-21
4.328246639e-22
7.192076816e-22
6.238480947e-21
-1.481315792e-18
3.194145097e-17
3.870625738e-18
1.786103074e-18
1.450206907e-17
-7.063115146e-15
6.776787247e-15
-4.227934653e-16
9.402321575e-15
-6.532169762e-15
-4.590732223e-14
-6.262188119e-14
-6.324424014e-14
3.682912446e-15
-5.694377041e-14
6.45088818e-14
-1.612160089e-13
-5.998220406e-14
6.991829044e-14
-1.609285196e-13
6.250432399e-13
-5.653090501e-13
-9.203588413e-14
3.804802617e-14
-2.451044397e-13
-1.82170492e-13
5.255770639e-14
-7.711014246e-14
-4.624595275e-13
-3.2522836e-13
-1.81948697e-14
3.274342876e-13
-3.649257192e-13
-5.319868909e-13
1.826851638e-13
5.836113189e-13
-5.095813827e-14
5.361494483e-13
-7.326663386e-13
-1.779703197e-15
1.967740506e-12
2.726849006e-12
9.047174801e-13
2.097624432e-13
-1.11845314e-13
-1.20243066e-13
-2.244314673e-12
-1.245629238e-13
1.323629248e-12
-3.492733168e-12
-1.231776344e-13
3.139346048e-12
-9.062515051e-12
-1.700345441e-12
-5.579746035e-12
-6.628942865e-13
1.3628634e-11
-2.597610424e-11
-4.723720003e-11
-1.779336588e-11
1.643575782e-12
1.238119374e-11
2.150056688e-11
6.07984247e-12
5.125395223e-12
1.402345411e-11
2.780551986e-12
2.152845471e-11
1.769379909e-11
1.854422735e-12
1.131706451e-11
9.702744589e-10
-4.612926521e-10
5.177762754e-11
7.77060586e-12
6.588341863e-12
-1.587909329e-07
8.823823075e-09
-1.087238794e-09
-5.870580919e-11
2.133983579e-11
-3.497431732e-09
-1.6910166e-09
-1.957135854e-08
1.189234895e-06
-6.9482535e-05
-5.633664476e-09
-5.22888097e-08
-3.822182806e-08
1.530140187e-06
2.358057672e-05
-1.355918504e-08
-3.468661437e-08
2.939929183e-06
2.817091422e-07
6.347104542e-06
-4.908832596e-08
-5.136641968e-08
8.10330328e-08
1.210132856e-07
1.576714817e-06
-4.476059475e-08
-4.752800108e-08
-9.418723294e-08
1.592204296e-07
8.621813695e-07
-4.314486018e-08
-4.710648625e-08
1.941115473e-09
1.742759795e-07
7.172816405e-07
-3.972776601e-08
-3.250089476e-08
-6.210834373e-09
3.424209999e-07
7.106230808e-06
-3.558402931e-08
2.315459475e-06
-3.964837024e-09
-3.85591644e-07
1.612127445e-06
-7.054742073e-08
1.163423196e-08
2.248281323e-08
-2.088508308e-07
-7.254504741e-07
-4.805905379e-08
-3.773630232e-08
2.093346491e-08
1.304952314e-08
-4.063051042e-08
-5.537798403e-08
-3.711672973e-08
-1.386896703e-08
-7.982217343e-08
-7.131630867e-07
-5.234583103e-08
-6.456064036e-08
-9.286454563e-08
-1.936747107e-07
-4.707118575e-07
-2.493271173e-08
-3.474528067e-08
-4.760036622e-08
-8.023697107e-08
4.624662396e-08
-5.262793399e-09
-7.62420183e-09
2.739478322e-08
1.101261043e-07
2.278773962e-07
-8.329281817e-10
3.236182897e-08
1.908687792e-07
8.186301976e-07
3.609568586e-06
2.053539273e-08
3.853415436e-08
1.427362309e-07
5.006517183e-07
1.165273554e-06
-2.002602255e-07
-8.670171006e-07
-3.581086492e-09
-1.869199426e-06
-2.78065572e-05
-2.924966789e-07
-1.763983215e-06
-1.272564578e-05
-5.967668849e-06
-1.129098442e-05
1.032984227e-06
9.697568033e-06
-2.944484045e-06
2.068271394e-05
4.003311482e-05
-3.498961239e-07
-7.888623323e-07
-3.396726368e-06
-3.369202216e-06
7.598677139e-06
-1.461210408e-06
-1.811159631e-06
-1.979825135e-06
1.326606755e-06
1.879180838e-05
1.54166494e-07
5.602549995e-07
1.791338578e-06
5.264326074e-06
1.479157988e-05
4.98087856e-06
5.674530191e-06
7.349406488e-06
1.031906052e-05
1.536490849e-05
7.493819754e-06
7.643688291e-06
6.395986313e-06
9.344126222e-06
1.139480908e-05
3.950711285e-06
4.074953774e-06
4.767385603e-06
4.275695304e-06
5.110857325e-06
1.567868753e-06
1.432350674e-06
1.466480375e-06
1.745106508e-06
1.67600112e-06
5.392000372e-07
5.398755934e-07
5.386895874e-07
5.38345943e-07
5.42286479e-07
1.943881131e-07
1.927700878e-07
1.959161346e-07
1.870099706e-07
1.815487638e-07
7.45750081e-08
7.507811017e-08
7.727292986e-08
6.753027255e-08
5.882032727e-08
3.045634832e-08
2.995127289e-08
2.67247976e-08
2.499999869e-08
2.248998831e-08
2.509682236e-08
2.56336969e-08
2.531311481e-08
1.220614422e-08
6.322080175e-09
3.409512705e-09
3.49723844e-09
3.666848478e-09
3.592894014e-09
3.256441492e-09
8.026333126e-10
7.806076637e-10
1.286525506e-09
1.238340296e-09
1.145718449e-09
3.693379519e-10
3.626201643e-10
3.490176204e-10
3.268177919e-10
3.076614689e-10
3.330532908e-11
1.134564964e-10
1.096775407e-10
8.177298071e-11
9.86501806e-11
-9.68147499e-12
-1.342738024e-11
-1.678792236e-11
-2.672079443e-11
-4.143142202e-11
8.569841722e-11
8.444409081e-11
8.199692214e-11
7.606239828e-11
6.966392287e-11
1.159683847e-10
1.148169984e-10
1.319735484e-10
1.29536493e-10
1.235638621e-10
1.156545559e-10
1.16766806e-10
1.20367936e-10
1.279292929e-10
1.0836445e-10
7.18287113e-11
7.212076623e-11
2.146323842e-11
5.695412342e-11
7.241562331e-11
1.048913781e-10
1.070051469e-10
1.087188203e-10
1.004813275e-10
4.258864751e-11
-1.010193553e-10
-7.800510303e-11
-9.035484593e-11
-6.243830459e-11
-5.26607666e-11
-1.670878063e-11
-3.169462756e-11
-1.687792344e-11
1.086557233e-11
2.014480883e-11
-2.83284589e-12
1.152473897e-12
3.660626726e-12
1.5034136e-12
-1.230644147e-11
-1.613576719e-10
-1.651308811e-10
-9.811141812e-11
-3.889932602e-11
1.90001892e-10
5.547481931e-12
1.103957272e-11
3.438877182e-11
8.951305231e-11
1.998054272e-10
1.459525196e-10
2.389038503e-10
2.517775341e-10
9.490589675e-11
2.831195912e-12
4.386025062e-12
3.032091965e-12
2.680944545e-12
5.239164843e-12
1.419586608e-11
1.22976596e-11
1.215619926e-11
1.178979459e-11
1.116727233e-11
1.013015424e-11
1.42590222e-11
1.291556532e-11
1.205234111e-11
1.352984234e-11
1.567073824e-11
-6.356721367e-11
-6.832390134e-11
8.723711327e-11
1.556252723e-10
1.725369946e-10
1.77729033e-10
1.758759717e-10
1.743347994e-10
1.756363952e-10
1.847724826e-10
2.16454802e-10
2.185823273e-10
2.169968807e-10
2.159063112e-10
1.935603241e-10
2.100835308e-10
2.150791936e-10
2.199743069e-10
2.159758809e-10
1.993631417e-10
-1.009905702e-11
-1.02180536e-11
-9.983721683e-12
-9.404921931e-12
-8.273228597e-12
-3.244494887e-12
-3.032017531e-12
-4.487128143e-12
-3.216908991e-12
-6.605390815e-12
-1.270158831e-10
-1.276927716e-10
-1.276144487e-10
-1.258226442e-10
-1.17989757e-10
-1.286597413e-10
-1.29446483e-10
-1.294394652e-10
-1.276661454e-10
-1.196859649e-10
-1.307057486e-10
-1.315548231e-10
-1.317177159e-10
-1.303149267e-10
-1.230122451e-10
-3.894683546e-11
-3.906346088e-11
-3.869711904e-11
-3.735627593e-11
-3.449741176e-11
-2.271739931e-11
-2.180553625e-11
-2.199376157e-11
-2.081064776e-11
-1.997106454e-11
-2.121984581e-11
-2.093863586e-11
-2.036594306e-11
-1.961983923e-11
-1.900278581e-11
-1.057760817e-11
-1.132302956e-11
-1.502602151e-11
-2.478500804e-11
-2.310475837e-11
2.059991374e-11
2.09609356e-11
2.145158241e-11
2.182736639e-11
2.090628616e-11
9.106615518e-12
9.549690399e-12
1.027311539e-11
1.132017362e-11
1.171050882e-11
-1.206142401e-11
-1.1453462e-11
-1.036329947e-11
-8.800996661e-12
-7.743849421e-12
-1.034549519e-11
-9.373548007e-12
-6.819461785e-12
-4.290217546e-12
-3.498493812e-12
-5.641938364e-11
-5.551399219e-11
-5.402855327e-11
-5.272346872e-11
-5.272401256e-11
-6.515761931e-11
-6.362947071e-11
-6.163513832e-11
-6.07498744e-11
-6.619724936e-11
-6.801795151e-11
-6.676573248e-11
-6.564927212e-11
-6.623054971e-11
-7.328765659e-11
-0.0004543349665
-6.502681378e-05
-3.867140388e-06
9.279547385e-07
-1.058429703e-06
8.816681135e-06
2.765782346e-05
1.895483665e-05
1.518570801e-06
1.224807704e-06
-2.32595126e-06
-1.151244587e-06
2.762408511e-07
6.580846636e-07
-4.619459428e-06
3.386581639e-06
-7.586628464e-06
-5.620032576e-05
-2.566953958e-05
4.097164485e-05
6.019503453e-05
3.217690669e-05
2.13485155e-05
1.318667065e-05
5.868079044e-06
1.666442058e-06
5.329341548e-07
1.804895841e-07
4.614306863e-08
2.043305964e-08
7.835124597e-09
3.045023419e-09
1.127541502e-09
2.945813429e-10
8.039127339e-11
-6.271751703e-11
7.315710672e-11
1.112810162e-10
1.100767973e-10
1.534695817e-10
-1.806351887e-10
-5.169473266e-11
1.194287973e-11
-4.368961178e-11
8.875594255e-11
1.436748694e-10
1.641253102e-11
-6.34673928e-12
8.40870005e-12
7.32593372e-12
4.065206408e-11
1.728947757e-10
1.417889908e-10
1.510769635e-10
-7.277761938e-12
-2.730788882e-11
-1.049576347e-10
-1.063146845e-10
-1.103173525e-10
-3.026323595e-11
-2.142227022e-11
-1.986249536e-11
3.334956438e-11
1.580540829e-11
7.160273143e-12
-1.173132715e-11
-1.043745377e-11
-5.253507475e-11
-6.930436278e-11
-7.621246404e-11
-6.805291764e-05
-6.704081256e-07
2.583358582e-08
1.526743657e-09
1.839695375e-10
-8.172970838e-06
2.746878337e-05
-6.040603843e-06
3.842081828e-08
-2.155058407e-09
-1.828234533e-06
-9.009198991e-06
8.965530787e-06
1.076174935e-06
-4.149596946e-08
9.462669347e-06
-0.00167287876
-1.967709211e-05
-3.252312999e-07
-7.283189136e-08
-2.368482957e-05
-4.067129301e-05
-0.001008394777
-0.0001904487671
-3.241476074e-06
3.0114345e-05
0.0005420083455
0.0001409225371
0.0001448783281
6.020189223e-06
5.902694997e-05
-2.12810627e-05
-0.0007431090687
-0.0001713991856
5.165518972e-06
6.05317842e-05
0.0003110373719
0.004090117808
0.0001755972268
-7.776144311e-07
6.957662971e-06
-1.39215936e-05
9.968010871e-05
-0.001252316752
-0.0001462147948
5.278306485e-06
1.596788597e-05
-0.0001123735841
-0.004256197411
9.21344581e-05
2.342482028e-06
-1.981137564e-06
-0.0008271314156
0.004633543308
2.633839271e-05
-5.780987194e-06
-9.735717972e-06
0.0001195807521
0.002428999545
0.0001414443153
-4.635712365e-06
-0.0002366778857
-2.758469038e-05
6.001319677e-05
2.682576307e-05
4.602259055e-06
6.990393752e-05
5.375075312e-06
-1.275292998e-05
-3.18447249e-05
2.67974841e-06
8.134709324e-05
-2.386972034e-06
-1.880853275e-05
0.004780948041
6.483557231e-06
7.954427312e-05
-6.969418092e-06
-2.114103671e-05
-0.004763024273
-7.152818269e-06
1.115410666e-05
-8.804044661e-05
-0.0005071470044
-0.0002353655185
-2.326363814e-05
-6.607794546e-05
-0.0001889793784
-0.0003578797002
0.0002986637973
-5.176491921e-05
-0.0001315951583
-0.000228729287
2.095286556e-05
-0.004068745658
0.0001255562513
0.0005433194182
0.001602400524
0.001237838548
-0.002400822913
0.0001625301172
0.0006150822922
0.001728679474
0.003469172462
0.003572673052
7.417214985e-05
0.0002416258979
0.0006243504545
0.001235958191
0.001569061107
3.326372183e-05
7.257614066e-05
0.0001474332791
0.0002495642662
0.0003064440398
1.623352302e-05
2.264951479e-05
3.103017523e-05
3.979854586e-05
4.312030062e-05
5.867994404e-06
6.651377625e-06
6.822532125e-06
6.759785978e-06
6.209884023e-06
1.779276924e-06
1.751746462e-06
1.595508817e-06
1.35073126e-06
1.069334002e-06
5.453802994e-07
4.71794227e-07
5.107174162e-07
3.805700226e-07
3.014227966e-07
1.908427359e-07
1.651249316e-07
1.670657329e-07
1.172309322e-07
6.434064345e-08
4.09383162e-08
4.840671851e-08
3.68903634e-08
4.797332712e-08
2.609964596e-08
1.801306461e-08
4.75203728e-08
1.556518011e-09
1.484855408e-08
8.887086857e-09
8.078174259e-09
7.782390287e-09
5.061203169e-09
6.097020096e-09
4.694590878e-09
3.01741955e-09
3.082232127e-09
-9.454480564e-11
1.352250113e-09
2.474945951e-09
9.746320892e-10
9.687479164e-10
8.391479105e-10
2.240681088e-10
1.373768263e-10
3.704535022e-10
-3.616795895e-11
1.941755297e-10
1.202277939e-10
2.579514779e-11
6.390910651e-11
1.530595554e-11
1.088450656e-12
-1.950898016e-10
-3.945419402e-10
-9.17815063e-11
5.973857034e-11
-3.227010526e-10
-1.520716178e-10
-1.071007588e-10
7.030273849e-11
1.767577105e-10
1.844565607e-10
2.600807651e-11
-3.778762913e-11
1.013686563e-10
9.865495385e-11
1.884949678e-10
-2.133707299e-10
3.842437145e-11
1.082730938e-10
2.099145527e-10
2.412957623e-10
-1.978507003e-10
1.043202564e-10
1.354201509e-10
1.829253141e-10
-2.45928621e-10
-1.522083891e-11
-9.750034129e-11
-3.444561614e-10
-3.565770227e-10
-1.900426865e-11
2.280426117e-11
2.76860626e-11
-1.792152988e-11
7.363554168e-12
2.755658238e-11
7.959206646e-12
-1.314597385e-10
-1.296555708e-11
1.681359716e-11
1.20243927e-11
-1.688963756e-10
1.542596328e-10
-1.34896371e-10
-1.927909991e-10
1.789376409e-10
1.224938404e-10
9.890159612e-11
7.847819078e-11
2.677447875e-10
1.456372482e-10
1.116366918e-10
2.733596989e-10
9.825693569e-12
2.499852558e-10
1.706263473e-10
6.419010384e-10
-1.176956287e-10
1.008118014e-10
3.693149997e-10
-1.319761146e-10
-3.160075579e-11
1.550464069e-11
-2.467889142e-12
-9.239732637e-12
6.428326889e-12
1.643068438e-11
1.935535455e-11
1.331119641e-11
1.737361826e-11
1.623089133e-11
2.238642243e-11
2.129519293e-10
7.305628363e-12
6.47986729e-11
-4.716224591e-11
-5.481025695e-11
9.178979262e-11
-1.877530177e-10
1.598747656e-10
-1.468998905e-10
1.477040295e-10
2.368505568e-10
2.062680271e-10
2.269867708e-10
2.408991791e-10
2.27915129e-10
2.274277473e-10
2.318201599e-10
2.431283914e-10
2.316993697e-10
1.894732876e-10
-4.301867062e-11
2.029722437e-10
-4.136129984e-11
-1.031045059e-11
-6.652599287e-12
-1.076051242e-11
-5.981497869e-12
-2.573791146e-12
-1.084012422e-11
-1.220531003e-10
-1.368778799e-10
-1.172103386e-10
-1.355832525e-10
-1.351318103e-10
-1.364079515e-10
-1.37594939e-10
-1.315835997e-10
-1.35987558e-10
-1.361356628e-10
-1.365755366e-10
-1.379308162e-10
-1.324243478e-10
-1.364758777e-10
-1.364223063e-10
-1.363455868e-10
-1.300417501e-10
-1.374142591e-10
-1.425371919e-10
-1.344618287e-10
-3.443505676e-11
-2.379815959e-11
-3.240964303e-11
-3.117273896e-11
-1.192697016e-11
-9.896378522e-12
-8.425043824e-12
-1.863421624e-11
-1.413914541e-11
-1.208989762e-11
-9.858885451e-12
-6.860546253e-12
-1.741368367e-11
-1.471411166e-11
-8.637525272e-12
-9.385587207e-12
-7.713737414e-11
1.0643401e-10
-9.768339388e-11
2.32595607e-11
3.05334117e-11
3.164086035e-11
2.237601558e-11
2.420781771e-11
2.700774546e-11
2.911103896e-11
3.12382109e-11
1.422791523e-11
1.588204255e-11
1.822762594e-11
2.129787182e-11
2.545894223e-11
-3.673022235e-12
-1.303797213e-14
6.597470242e-12
2.247055336e-11
3.213316605e-11
2.015401976e-12
6.509234051e-12
-4.353753366e-11
-2.987437585e-11
-1.611143706e-11
-4.273980006e-11
-5.024202013e-11
-4.158552868e-11
-3.469540271e-11
-2.800187469e-11
-5.004390724e-11
-3.997644389e-11
-3.129728775e-11
-2.670219516e-11
-2.303092032e-11
-5.525702914e-11
-4.780509835e-11
-4.127733386e-11
-3.031328723e-11
-3.154097995e-11
-7.341817391e-11
-1.389613893e-09
1.984780322e-10
-1.091773703e-11
-1.208288993e-11
-1.145469989e-11
-9.134491344e-12
-8.794609214e-12
-8.774905332e-12
-8.781500532e-12
-8.788638454e-12
-8.794739218e-12
-8.799975323e-12
-8.80225135e-12
-8.77761489e-12
-8.782935817e-12
-8.799274409e-12
-8.790545159e-12
-8.820393363e-12
-8.824809208e-12
-8.827013315e-12
-8.828918518e-12
-8.830690249e-12
-8.832339312e-12
-8.83392947e-12
-8.835476073e-12
-8.836966838e-12
-8.838436879e-12
-8.839865907e-12
-8.841270037e-12
-8.842670232e-12
-8.844054278e-12
-8.84541959e-12
-8.846796203e-12
-8.848163421e-12
-8.849506667e-12
-8.850853134e-12
-8.852185798e-12
-8.853478538e-12
-8.854730448e-12
-8.855943351e-12
-8.857105849e-12
-8.858212454e-12
-8.859260067e-12
-8.860263771e-12
-8.861210984e-12
-8.862097897e-12
-8.862930826e-12
-8.863703115e-12
-8.864414716e-12
-8.865072826e-12
-8.865674192e-12
-8.866202909e-12
-8.866661942e-12
-8.867043937e-12
-8.867332114e-12
-8.867243764e-12
-8.864337402e-12
-8.844685453e-12
-8.820134264e-12
-3.024928299e-10
-5.267727923e-09
-2.629186605e-11
-2.856885512e-11
4.224009117e-12
-1.302263287e-11
-1.417864748e-11
-1.427647219e-11
-1.427779415e-11
-1.428773849e-11
-1.429940148e-11
-1.431057484e-11
-1.43205357e-11
-1.432792155e-11
-1.431487688e-11
-1.422308151e-11
-1.425076976e-11
-1.433609697e-11
-1.435654957e-11
-1.436151173e-11
-1.436550119e-11
-1.436932827e-11
-1.437301649e-11
-1.437639984e-11
-1.437974561e-11
-1.438281375e-11
-1.438574791e-11
-1.438858333e-11
-1.43912276e-11
-1.439382319e-11
-1.439628882e-11
-1.439864229e-11
-1.440092532e-11
-1.440315691e-11
-1.440528311e-11
-1.440742501e-11
-1.440955492e-11
-1.441158148e-11
-1.441354685e-11
-1.441548598e-11
-1.441738114e-11
-1.44191934e-11
-1.442095695e-11
-1.442267698e-11
-1.442435399e-11
-1.442594212e-11
-1.44274856e-11
-1.44289637e-11
-1.443037572e-11
-1.443173307e-11
-1.443303055e-11
-1.443426601e-11
-1.443543074e-11
-1.443655413e-11
-1.443762498e-11
-1.443882676e-11
-1.444093321e-11
-1.444792036e-11
-1.446880825e-11
-1.449121123e-11
-8.237036454e-10
5.650500473e-09
-3.429793579e-11
3.437637658e-11
-2.6458776e-12
-1.790858531e-11
-1.45805892e-11
-1.445940766e-11
-1.446113814e-11
-1.447442284e-11
-1.448996279e-11
-1.4505583e-11
-1.452014845e-11
-1.453182028e-11
-1.451649709e-11
-1.440844391e-11
-1.445005368e-11
-1.455131304e-11
-1.45743799e-11
-1.458064289e-11
-1.458583149e-11
-1.459057552e-11
-1.459497893e-11
-1.45990729e-11
-1.460294899e-11
-1.46066354e-11
-1.461020273e-11
-1.461363911e-11
-1.461693744e-11
-1.462009749e-11
-1.46230869e-11
-1.462592784e-11
-1.462862818e-11
-1.463120058e-11
-1.463364182e-11
-1.463598503e-11
-1.463822316e-11
-1.464035733e-11
-1.464240838e-11
-1.464438199e-11
-1.464628955e-11
-1.464811845e-11
-1.464988939e-11
-1.465160992e-11
-1.465328282e-11
-1.465490612e-11
-1.465648936e-11
-1.465802976e-11
-1.465953127e-11
-1.466103781e-11
-1.466253437e-11
-1.466397695e-11
-1.466535963e-11
-1.466670528e-11
-1.466803953e-11
-1.466962741e-11
-1.467251414e-11
-1.467967901e-11
-1.469283771e-11
-1.470214174e-11
-2.335359815e-08
-7.03109922e-09
-2.033021375e-09
1.124475027e-11
-1.095196252e-11
-7.8002693e-12
-1.520935948e-11
-1.441541647e-11
-1.439494254e-11
-1.441398933e-11
-1.443780891e-11
-1.446255813e-11
-1.448619971e-11
-1.450547398e-11
-1.448763806e-11
-1.437923214e-11
-1.443308398e-11
-1.454351643e-11
-1.457112844e-11
-1.457910381e-11
-1.458559387e-11
-1.45914138e-11
-1.459671521e-11
-1.460157121e-11
-1.460606281e-11
-1.461023807e-11
-1.461415237e-11
-1.461783487e-11
-1.462131332e-11
-1.462460312e-11
-1.462773172e-11
-1.463070722e-11
-1.463353743e-11
-1.463624474e-11
-1.463882695e-11
-1.464132442e-11
-1.464375229e-11
-1.464611275e-11
-1.46483863e-11
-1.465056218e-11
-1.465265805e-11
-1.465466194e-11
-1.465658989e-11
-1.465843755e-11
-1.466022234e-11
-1.466195705e-11
-1.466364178e-11
-1.466527228e-11
-1.466686023e-11
-1.466840896e-11
-1.466991502e-11
-1.467138434e-11
-1.467281466e-11
-1.467423168e-11
-1.467570557e-11
-1.467764872e-11
-1.46813324e-11
-1.468933159e-11
-1.470144194e-11
-1.470818326e-11
1.684255656e-08
-2.52899646e-08
3.114029737e-09
-1.926694922e-09
1.217018259e-10
1.516108373e-11
-1.608498089e-11
-1.442737188e-11
-1.435731801e-11
-1.43702667e-11
-1.439296034e-11
-1.441850444e-11
-1.444473213e-11
-1.446701713e-11
-1.444155723e-11
-1.433722427e-11
-1.440100293e-11
-1.452382047e-11
-1.455878961e-11
-1.456928669e-11
-1.457747749e-11
-1.458459797e-11
-1.459093518e-11
-1.459664318e-11
-1.460184086e-11
-1.460661187e-11
-1.461102508e-11
-1.461512575e-11
-1.461896166e-11
-1.462256033e-11
-1.462595687e-11
-1.462916655e-11
-1.463220802e-11
-1.463510533e-11
-1.463785882e-11
-1.464049201e-11
-1.464300687e-11
-1.464541713e-11
-1.464772827e-11
-1.464994523e-11
-1.465208171e-11
-1.465413215e-11
-1.465611292e-11
-1.465801703e-11
-1.465985234e-11
-1.466165593e-11
-1.466342782e-11
-1.46651512e-11
-1.466683232e-11
-1.466846172e-11
-1.467004717e-11
-1.467159679e-11
-1.467311084e-11
-1.467463219e-11
-1.467628667e-11
-1.467862262e-11
-1.468305647e-11
-1.469164648e-11
-1.470310278e-11
-1.470847978e-11
-8.492943019e-08
-7.762869549e-08
-1.817291944e-08
-8.96191944e-09
-7.019109078e-10
5.354980037e-11
-1.884278288e-11
-1.455304438e-11
-1.434449099e-11
-1.434527005e-11
-1.436429656e-11
-1.438762606e-11
-1.441249818e-11
-1.443291821e-11
-1.439332694e-11
-1.429444206e-11
-1.436350331e-11
-1.449899567e-11
-1.454370612e-11
-1.455765493e-11
-1.456818081e-11
-1.457700655e-11
-1.458461683e-11
-1.459131652e-11
-1.459731269e-11
-1.460274386e-11
-1.46077098e-11
-1.461228084e-11
-1.461651814e-11
-1.462046362e-11
-1.462415657e-11
-1.462762632e-11
-1.463089704e-11
-1.463399268e-11
-1.463692455e-11
-1.463971245e-11
-1.464236548e-11
-1.464489771e-11
-1.464731853e-11
-1.464963418e-11
-1.465185755e-11
-1.465398817e-11
-1.465604291e-11
-1.4658025e-11
-1.465993412e-11
-1.46617823e-11
-1.466357021e-11
-1.466531335e-11
-1.466702301e-11
-1.466868209e-11
-1.467030357e-11
-1.467189429e-11
-1.467346425e-11
-1.467508149e-11
-1.467693627e-11
-1.467970011e-11
-1.468479959e-11
-1.469371315e-11
-1.470448134e-11
-1.470865061e-11
9.458795275e-07
-1.056520699e-07
-5.74477477e-08
-5.48338669e-09
-4.482703641e-09
-4.737769852e-10
-7.482100127e-11
-1.467610143e-11
-1.434448617e-11
-1.432966101e-11
-1.434399612e-11
-1.43649226e-11
-1.438781747e-11
-1.44048376e-11
-1.434885003e-11
-1.425553634e-11
-1.432669297e-11
-1.447151487e-11
-1.452620807e-11
-1.454391663e-11
-1.455727877e-11
-1.456829748e-11
-1.457754947e-11
-1.45854862e-11
-1.459243994e-11
-1.459863607e-11
-1.460422732e-11
-1.460931997e-11
-1.461399618e-11
-1.46183167e-11
-1.462233139e-11
-1.462607985e-11
-1.462959296e-11
-1.463289859e-11
-1.463601688e-11
-1.463896803e-11
-1.464176693e-11
-1.464442806e-11
-1.464696367e-11
-1.464938276e-11
-1.465169768e-11
-1.465391374e-11
-1.465604339e-11
-1.465809439e-11
-1.466007259e-11
-1.466198515e-11
-1.466382971e-11
-1.466561758e-11
-1.466736397e-11
-1.466906366e-11
-1.467073293e-11
-1.467237118e-11
-1.467399899e-11
-1.467571468e-11
-1.467777719e-11
-1.468096242e-11
-1.468659469e-11
-1.469561954e-11
-1.470572737e-11
-1.470886762e-11
-2.035685858e-08
-1.146517935e-07
-1.740071661e-07
-2.992467267e-08
-1.102467657e-08
-2.242802699e-09
-1.354950111e-10
-1.645214949e-11
-1.443542999e-11
-1.432473563e-11
-1.432871006e-11
-1.434695042e-11
-1.436812194e-11
-1.438184775e-11
-1.431040483e-11
-1.422360446e-11
-1.429481776e-11
-1.444506947e-11
-1.450819254e-11
-1.452905792e-11
-1.454515493e-11
-1.455856513e-11
-1.456973592e-11
-1.457914449e-11
-1.458722096e-11
-1.459429043e-11
-1.460057962e-11
-1.46062437e-11
-1.461139539e-11
-1.461611698e-11
-1.462047288e-11
-1.462451363e-11
-1.462827952e-11
-1.463180443e-11
-1.463511508e-11
-1.463823493e-11
-1.464118313e-11
-1.464397627e-11
-1.464662909e-11
-1.464915308e-11
-1.465156145e-11
-1.465386296e-11
-1.465606882e-11
-1.465818783e-11
-1.466022747e-11
-1.466219774e-11
-1.466410319e-11
-1.466594738e-11
-1.466773816e-11
-1.466947673e-11
-1.4671182e-11
-1.467286676e-11
-1.467456512e-11
-1.467639992e-11
-1.467869954e-11
-1.468229447e-11
-1.468834378e-11
-1.469735545e-11
-1.470687669e-11
-1.470906399e-11
-1.919665285e-05
-5.37552846e-07
-3.770932983e-07
-1.005723812e-07
-1.642357313e-08
6.059103453e-09
2.674793777e-10
1.095981869e-10
-1.454253952e-11
-1.432902402e-11
-1.431777033e-11
-1.433142161e-11
-1.4350477e-11
-1.436099028e-11
-1.427539101e-11
-1.419629234e-11
-1.426674739e-11
-1.442031028e-11
-1.44906533e-11
-1.451394012e-11
-1.453233445e-11
-1.454803687e-11
-1.456123808e-11
-1.457229397e-11
-1.458164784e-11
-1.45897015e-11
-1.459676279e-11
-1.460304776e-11
-1.460871014e-11
-1.461385848e-11
-1.461857529e-11
-1.462292388e-11
-1.462695441e-11
-1.463070825e-11
-1.46342186e-11
-1.463751288e-11
-1.464061416e-11
-1.464354149e-11
-1.464631311e-11
-1.46489424e-11
-1.465144531e-11
-1.46538318e-11
-1.465611375e-11
-1.465830158e-11
-1.466040328e-11
-1.466242927e-11
-1.466438699e-11
-1.466628141e-11
-1.466812264e-11
-1.466991211e-11
-1.467166034e-11
-1.467339323e-11
-1.467516274e-11
-1.467713162e-11
-1.467969205e-11
-1.468366401e-11
-1.469003437e-11
-1.469895615e-11
-1.470796334e-11
-1.470937995e-11
6.679104423e-06
8.188232393e-07
-4.655039972e-07
-2.793918267e-07
-5.051887098e-08
-5.253453737e-09
-2.758460801e-09
-2.131661097e-10
-1.620413793e-11
-1.440176393e-11
-1.431209801e-11
-1.431708277e-11
-1.433321569e-11
-1.43401913e-11
-1.424061004e-11
-1.417087186e-11
-1.423978939e-11
-1.439569594e-11
-1.44732065e-11
-1.449855799e-11
-1.451890194e-11
-1.453673916e-11
-1.455201835e-11
-1.456488317e-11
-1.457569106e-11
-1.458486736e-11
-1.4592792e-11
-1.459975414e-11
-1.460596184e-11
-1.461156018e-11
-1.46166542e-11
-1.462132326e-11
-1.46256274e-11
-1.462961749e-11
-1.463333209e-11
-1.463680375e-11
-1.46400605e-11
-1.464312358e-11
-1.464601613e-11
-1.464875173e-11
-1.465135026e-11
-1.465382221e-11
-1.465618037e-11
-1.465843748e-11
-1.466060055e-11
-1.466268273e-11
-1.466469076e-11
-1.466663042e-11
-1.466851589e-11
-1.467035236e-11
-1.467214925e-11
-1.467393871e-11
-1.467579107e-11
-1.46779094e-11
-1.468074014e-11
-1.468505699e-11
-1.469167089e-11
-1.470045106e-11
-1.47089943e-11
-1.470962501e-11
5.31598814e-06
-2.028474949e-05
-4.756778973e-07
-8.532196298e-07
-1.626345979e-07
-2.128267409e-08
1.44298304e-08
1.338493866e-09
-3.969181472e-11
-1.441708987e-11
-1.43200753e-11
-1.430953144e-11
-1.431913634e-11
-1.432114125e-11
-1.420706285e-11
-1.41472116e-11
-1.421377334e-11
-1.437084496e-11
-1.445554827e-11
-1.448271768e-11
-1.450471629e-11
-1.45245034e-11
-1.454185504e-11
-1.455667181e-11
-1.456914113e-11
-1.457963608e-11
-1.458857169e-11
-1.459630978e-11
-1.460312425e-11
-1.460921126e-11
-1.461470757e-11
-1.461971404e-11
-1.462430396e-11
-1.462853855e-11
-1.463246157e-11
-1.463611329e-11
-1.46395268e-11
-1.464272733e-11
-1.464574142e-11
-1.464858443e-11
-1.465127818e-11
-1.465383493e-11
-1.465626882e-11
-1.465859398e-11
-1.466081696e-11
-1.466295482e-11
-1.466501301e-11
-1.466699984e-11
-1.466892791e-11
-1.467080459e-11
-1.467264717e-11
-1.467449791e-11
-1.467645234e-11
-1.467874126e-11
-1.468183818e-11
-1.468646515e-11
-1.469325802e-11
-1.470186299e-11
-1.470997422e-11
-1.470964592e-11
2.889831222e-05
4.708879003e-06
9.628321919e-08
-2.246403116e-06
-4.550029797e-07
-6.564094536e-08
-4.73533318e-09
-1.567089617e-09
4.811398341e-10
-1.847875314e-11
-1.451493423e-11
-1.432346323e-11
-1.431321751e-11
-1.430756978e-11
-1.417942293e-11
-1.412746007e-11
-1.419151958e-11
-1.434813398e-11
-1.443889217e-11
-1.446731102e-11
-1.449044158e-11
-1.451175624e-11
-1.453093332e-11
-1.454765576e-11
-1.456189476e-11
-1.457388462e-11
-1.458400327e-11
-1.459264953e-11
-1.460016008e-11
-1.460679078e-11
-1.461272321e-11
-1.461808731e-11
-1.462297773e-11
-1.462746636e-11
-1.463160688e-11
-1.463544676e-11
-1.463902235e-11
-1.464236444e-11
-1.46455002e-11
-1.464845206e-11
-1.465123989e-11
-1.46538804e-11
-1.465638776e-11
-1.46587771e-11
-1.466105924e-11
-1.466325027e-11
-1.46653563e-11
-1.466738805e-11
-1.466935554e-11
-1.467127215e-11
-1.467316326e-11
-1.467508025e-11
-1.467714521e-11
-1.467961875e-11
-1.468297344e-11
-1.468787084e-11
-1.469478154e-11
-1.470318191e-11
-1.471087653e-11
-1.470927348e-11
-7.100957846e-06
-1.696943084e-07
-2.017714539e-07
-3.297367357e-06
-8.119948247e-07
-1.380920655e-07
-1.64152213e-08
2.576088733e-08
2.294150518e-09
9.312192948e-11
-1.527451358e-11
-1.436640761e-11
-1.4317853e-11
-1.430249183e-11
-1.416228597e-11
-1.411410747e-11
-1.417661495e-11
-1.433130147e-11
-1.44254636e-11
-1.445414755e-11
-1.44775859e-11
-1.449967904e-11
-1.452008308e-11
-1.453833135e-11
-1.455418477e-11
-1.456768001e-11
-1.457907682e-11
-1.458874204e-11
-1.459704155e-11
-1.460428163e-11
-1.461069257e-11
-1.461644069e-11
-1.462164692e-11
-1.462639795e-11
-1.463076172e-11
-1.463479282e-11
-1.463853331e-11
-1.464201933e-11
-1.464527853e-11
-1.464833985e-11
-1.465122138e-11
-1.465394507e-11
-1.465652598e-11
-1.465898046e-11
-1.466132265e-11
-1.466356447e-11
-1.466571674e-11
-1.4667791e-11
-1.466979679e-11
-1.467175539e-11
-1.467369927e-11
-1.467569052e-11
-1.467787403e-11
-1.468053725e-11
-1.468414092e-11
-1.468927305e-11
-1.469625059e-11
-1.470443402e-11
-1.471174362e-11
-1.470910173e-11
-4.938866284e-06
-3.734533976e-07
2.265045951e-05
-1.70844393e-06
-1.267573203e-06
-2.46785367e-07
-4.813810002e-08
3.466990446e-08
1.137102541e-08
1.039251866e-09
-1.744933324e-11
-1.451893808e-11
-1.434733262e-11
-1.43101821e-11
-1.415978316e-11
-1.41098355e-11
-1.41722069e-11
-1.432405356e-11
-1.44177468e-11
-1.444542079e-11
-1.446813497e-11
-1.448999929e-11