/*--------------------------------*- C++ -*----------------------------------*\
  =========                 |
  \\      /  F ield         | OpenFOAM: The Open Source CFD Toolbox
   \\    /   O peration     | Website:  https://openfoam.org
    \\  /    A nd           | Version:  10
     \\/     M anipulation  |
\*---------------------------------------------------------------------------*/
FoamFile
{
    format      ascii;
    class       volScalarField;
    location    "0.0250188088";
    object      ddt0(rho,CH2CHO);
}
// * * * * * * * * * * * * * * * * * * * * * * * * * * * * * * * * * * * * * //

dimensions      [1 -3 -1 0 0 0 0];

internalField   nonuniform List<scalar> 
5170
(
-1.44118992e-64
-1.441302232e-64
-1.441393454e-64
-1.441686944e-64
-1.442609771e-64
-1.45306736e-64
-1.453204227e-64
-1.453401042e-64
-1.453763074e-64
-1.454654255e-64
-1.45313472e-64
-1.453294335e-64
-1.453571436e-64
-1.453951897e-64
-1.454829074e-64
-1.453110882e-64
-1.453303126e-64
-1.453635941e-64
-1.45401063e-64
-1.454900065e-64
-1.453118878e-64
-1.453330436e-64
-1.453696385e-64
-1.45407007e-64
-1.460894997e-64
-2.095062673e-64
-1.571576506e-64
-1.463967185e-64
-2.528826776e-64
-4.574569416e-62
-2.629065748e-60
-5.221325585e-61
-5.551659362e-62
-7.664866412e-60
-3.416404395e-57
-1.104226646e-55
-2.415725746e-56
-3.208853728e-57
-5.568507884e-55
-2.519804257e-52
-4.777601065e-51
-1.175038145e-51
-1.971826963e-52
-4.098950208e-50
-1.843181883e-47
-2.135284935e-46
-6.013412861e-47
-1.275999116e-47
-3.032030601e-45
-1.344236357e-42
-9.885699839e-42
-3.238399505e-42
-8.617868295e-43
-2.229213619e-40
-9.807830819e-38
-4.745450146e-37
-1.833176531e-37
-6.06661693e-38
-1.603035652e-35
-7.16932817e-33
-2.365484221e-32
-1.089797961e-32
-4.43667903e-33
-1.104141414e-30
-5.256714931e-28
-1.223861037e-27
-6.783380517e-28
-3.389930872e-28
-7.057884445e-26
-3.869821439e-23
-6.574689102e-23
-4.417240443e-23
-2.731929158e-23
-3.924423915e-21
-2.860470331e-18
-3.663707157e-18
-2.99685214e-18
-2.33866155e-18
-1.60902316e-16
-2.122828516e-13
-2.116110296e-13
-2.116532431e-13
-2.117287405e-13
-2.119183755e-13
-2.139188013e-13
-2.135860279e-13
-2.136195535e-13
-2.136559706e-13
-2.137182145e-13
-2.139317209e-13
-2.135991908e-13
-2.136311636e-13
-2.136660342e-13
-2.13747974e-13
-2.208493192e-13
-2.135991526e-13
-2.136147214e-13
1.326732879e-09
-7.636199477e-10
-3.913034385e-09
-6.840687878e-19
-8.513074634e-19
9.260443767e-19
9.133582216e-19
9.555870736e-19
-2.710396916e-19
-1.987102841e-20
-3.738287711e-19
-1.31183192e-19
3.481744802e-19
-6.044614852e-20
-2.807434142e-19
-2.118151859e-19
3.162239573e-19
-1.759329279e-20
-4.092557707e-20
1.187343738e-19
-1.026300502e-19
1.183668909e-19
-6.311083267e-19
3.763833007e-17
-3.953099291e-19
-1.653495888e-19
2.630198353e-19
6.181827168e-17
3.771944293e-15
-1.801450417e-16
-6.484158516e-17
-6.184439628e-17
7.869312012e-16
1.038265186e-15
4.253817109e-15
-3.799914017e-15
-3.614487386e-14
4.438174242e-12
4.485586955e-12
-3.141892798e-14
-5.181860867e-14
2.924295657e-12
-1.243501045e-11
1.164105282e-11
3.576412154e-12
9.336320848e-12
-9.382708278e-12
1.310823491e-12
1.108570704e-11
-6.531992524e-12
2.08003963e-12
-1.249670982e-11
-3.889773905e-13
2.76792006e-13
-1.137808378e-11
-3.816926893e-12
1.136339892e-11
3.346675209e-12
-3.117075095e-13
2.199678376e-12
-1.294698763e-11
-7.854240965e-13
2.49762147e-12
2.841086895e-12
-6.488436882e-13
-5.96554163e-13
1.971004794e-12
-5.20951345e-12
-8.984669021e-12
3.205655334e-12
2.538985285e-12
-5.780253633e-12
-7.701259101e-12
-5.545099603e-12
-7.736199413e-12
-6.444334394e-12
-5.739499409e-12
-5.651434669e-12
-7.605362764e-12
-4.835283993e-12
-7.821880315e-12
-7.715405744e-12
-8.079868076e-12
-5.407782846e-12
-8.447275916e-12
-7.576207023e-12
-4.46016077e-12
4.606756151e-12
-7.956790149e-12
-5.59807069e-12
-5.502893964e-12
-8.387459443e-12
4.380126881e-11
3.117920943e-12
-1.110603114e-11
-8.431636392e-12
1.328731668e-12
-5.297299306e-11
-6.770240932e-10
4.72417514e-11
-6.680398117e-11
1.226816534e-11
-2.085490304e-12
4.345338074e-10
1.114386327e-09
-2.609842723e-09
3.577929806e-08
-3.010524075e-06
-2.136783792e-13
-4.373064137e-10
-2.987558524e-09
7.330129584e-08
8.308003925e-07
-2.140396977e-13
-3.115282881e-09
2.327920554e-07
2.387278103e-08
2.106192861e-07
-2.157841735e-13
-4.009431574e-09
-2.205612328e-11
1.979289764e-08
1.653662877e-07
-1.190102325e-09
-3.448781403e-09
-1.032950189e-08
2.154288409e-08
9.857944215e-08
2.339553018e-10
-3.342450235e-09
2.05630093e-10
5.466648613e-09
4.838839211e-08
-3.642586487e-09
-2.498502662e-09
-5.407766318e-10
-3.328323136e-08
-3.248827429e-07
-2.368766104e-09
1.840091245e-07
7.845563842e-09
4.867200533e-09
-1.453173465e-07
-4.920594949e-09
-3.091902722e-09
1.337087608e-08
6.514962208e-08
1.735174854e-07
-2.962971662e-09
8.324036534e-12
5.974612349e-09
2.921705062e-08
3.58766723e-08
-3.772478415e-09
-3.026357504e-09
-5.970919649e-09
-8.273439891e-08
-9.489839388e-07
-2.387306142e-09
-8.978219826e-09
-3.012426981e-08
-6.768251975e-08
1.525455581e-08
4.707607669e-10
-4.429662404e-09
-1.464369481e-08
-2.469741353e-08
1.781713344e-07
1.578969308e-09
2.181801068e-09
1.596868229e-08
6.135316448e-08
1.219868492e-07
-1.660082886e-12
1.217332667e-09
3.523362772e-09
9.350019265e-09
-5.550555837e-07
1.14837372e-08
1.551645931e-08
9.808045136e-09
-1.592938696e-08
3.414353446e-08
-1.115279327e-07
-4.7204723e-07
-1.766204527e-07
-2.707521637e-07
9.410313974e-06
-2.569071633e-08
-4.115864307e-07
-3.595522337e-06
-5.945120309e-07
-1.694236698e-07
3.086733711e-07
3.258320333e-06
-1.753855662e-06
-1.64449835e-05
-1.785023605e-05
-4.077562955e-07
-7.809661504e-07
-1.69692291e-06
-3.235295181e-06
-3.708628147e-06
-1.184952023e-06
-1.639222474e-06
-2.709499036e-06
-4.617836969e-06
-6.818081572e-06
-5.494786307e-07
-1.018470114e-06
-2.468469209e-06
-5.390809892e-06
-9.711191617e-06
3.821449145e-06
3.899046934e-06
4.019613428e-06
4.094015992e-06
4.307855142e-06
7.349660162e-06
7.610301718e-06
7.935048168e-06
9.263926266e-06
1.060514651e-05
4.433778594e-06
4.504765643e-06
4.985747732e-06
4.596811007e-06
5.057275163e-06
1.353381743e-06
1.277264907e-06
1.266165934e-06
1.345007686e-06
1.254094664e-06
2.874924309e-07
2.835053776e-07
2.773039356e-07
2.514035365e-07
2.696122501e-07
5.282972147e-08
4.965224684e-08
5.412932194e-08
4.482658458e-08
3.966977383e-08
9.232035574e-09
9.953242046e-09
1.134336577e-08
6.516487106e-09
4.138921959e-09
1.767097662e-09
1.68955252e-09
1.043335793e-09
6.903435584e-10
1.679396762e-10
3.129750823e-09
3.231625877e-09
3.230375688e-09
1.15388568e-09
9.505211511e-10
3.13700618e-11
5.186086212e-11
8.853130357e-11
9.790616121e-11
7.910196387e-11
-5.148547361e-12
-4.562750109e-12
5.664148028e-12
7.627237453e-12
6.325511139e-12
-3.282088435e-12
-3.34885328e-12
-3.448169866e-12
-3.626690522e-12
-3.891681869e-12
8.948140719e-12
-7.440264263e-12
-7.671576578e-12
-6.310083921e-12
-5.74072054e-12
-3.058232414e-11
-3.080452812e-11
-3.211373446e-11
-3.406150162e-11
-3.468567075e-11
3.246793065e-13
-1.798222971e-13
-1.061182776e-12
-3.990604156e-12
-7.063937978e-12
2.264926777e-11
2.281857416e-11
1.524118009e-11
1.420432964e-11
1.200131595e-11
1.612826732e-11
1.637816681e-11
1.704607866e-11
1.828981892e-11
9.730892584e-12
3.325110629e-12
3.714102457e-12
-1.257149529e-11
2.713355575e-13
3.900164504e-12
1.965745825e-11
1.980719411e-11
2.078839652e-11
1.845520203e-11
9.949335613e-12
1.063912645e-11
1.045719337e-11
1.471646408e-11
1.805496991e-11
3.076909844e-11
-4.607619246e-12
-4.784031657e-12
-7.520388051e-13
9.31672679e-13
1.559827046e-12
3.344662642e-12
3.279062154e-12
3.583254588e-12
3.162864216e-12
1.701473733e-12
-1.903489182e-11
-1.863756409e-11
-1.980372991e-11
-1.383109451e-11
3.473425857e-12
2.264942144e-11
2.188693097e-11
1.945070934e-11
1.515624996e-11
7.85234633e-12
7.003009166e-12
5.731977601e-12
5.261427717e-12
2.319702312e-11
2.482518971e-11
2.621469243e-12
3.606610497e-12
4.376413206e-12
4.026597031e-12
1.841857511e-12
-1.122613061e-12
-6.378950569e-13
2.428767574e-13
1.190466566e-12
1.152597209e-12
-1.132401747e-12
2.925746215e-13
9.277543312e-13
-8.311210402e-13
-2.06474231e-13
-1.447725212e-13
-1.4725615e-13
-1.784592548e-13
-1.584872032e-13
-1.898746095e-13
-1.778231277e-13
-1.974374472e-13
-2.627437807e-13
-1.279602416e-13
1.138283713e-14
-2.066920937e-13
-2.027806032e-13
-2.005827441e-13
-2.062436445e-13
-2.293161242e-13
-2.120923817e-13
-2.09512506e-13
-2.035976979e-13
-1.969700673e-13
-1.906626657e-13
-2.401519667e-15
-2.815871117e-15
-1.966495529e-15
-4.646610264e-15
-1.109284057e-14
-2.577113458e-14
-1.494787213e-14
2.566774866e-14
-1.059497431e-14
-1.389787929e-14
-5.915902626e-14
-5.502891975e-14
-5.305947519e-14
-6.254955908e-14
-1.097342935e-13
-1.085856401e-13
-1.026669679e-13
-9.84323129e-14
-1.042534108e-13
-1.098111596e-13
-1.10865452e-13
-1.045896415e-13
-9.947643799e-14
-1.037631001e-13
-1.139249176e-13
-4.851680228e-14
-2.251319143e-14
3.034782389e-14
1.053262819e-13
1.673545486e-13
3.24457704e-14
3.054736404e-14
1.88069536e-14
1.642810791e-14
2.039933603e-14
-8.674740883e-15
-8.713055249e-15
-5.744760562e-15
-4.542040428e-15
-9.282982494e-15
-2.522110606e-14
-6.852572122e-14
-2.789825598e-13
-3.27573335e-13
-3.43250268e-13
-1.087818679e-12
-1.094698238e-12
-1.098366794e-12
-1.096833075e-12
-1.09912007e-12
-1.091082292e-12
-1.098540058e-12
-1.101153697e-12
-1.090477151e-12
-1.034946114e-12
-1.087848598e-12
-1.095298575e-12
-1.09783244e-12
-1.087059689e-12
-1.031337267e-12
2.183544149e-13
2.17398099e-13
2.199088447e-13
2.069779553e-13
1.818838128e-13
4.918190415e-15
9.746370974e-16
-1.693188768e-15
5.591904001e-15
5.042966016e-14
-6.899437426e-14
-8.562104533e-14
-1.091669469e-13
-1.134951436e-13
-4.488225229e-14
4.686337397e-13
4.458570662e-13
4.119693331e-13
4.760537311e-13
2.868823255e-13
-1.206886266e-05
-2.860900356e-06
-1.344392951e-06
-5.054083658e-07
-9.601056828e-07
8.026202361e-07
-2.729930415e-07
-6.341514144e-07
6.712811991e-08
1.720467163e-08
-3.745161808e-06
5.157331731e-07
9.896665387e-07
7.427049688e-08
2.485022505e-06
3.286142773e-07
2.149108998e-07
3.70411629e-06
-5.850060268e-06
-2.621621532e-06
-6.846808014e-06
-1.254760137e-05
4.939537519e-06
1.168865594e-05
5.453053938e-06
1.221825359e-06
2.308566857e-07
3.99410503e-08
-8.199847503e-11
-3.069804382e-10
3.833070417e-10
6.11814693e-11
6.739910681e-12
-5.629499887e-12
-7.415335433e-12
-3.085957935e-11
-2.240545749e-12
1.08021073e-11
7.758859306e-12
2.311053293e-11
1.211157934e-11
6.669227795e-12
-3.494648095e-13
-3.744253474e-13
1.389549021e-11
-1.275068387e-12
-5.083245768e-11
-6.981630401e-13
-9.209196177e-14
1.506149675e-12
-4.452193305e-14
1.241566443e-13
-2.156302471e-13
-1.325936176e-13
-1.010338224e-14
-3.088861516e-14
-8.311042507e-14
-5.147204348e-14
-5.894162331e-14
1.699926941e-13
4.407146801e-14
-9.14278482e-15
-2.34372261e-13
-9.712664346e-13
-9.40547227e-13
-9.374009253e-13
1.535307262e-13
1.413110058e-13
2.122918152e-14
2.288593055e-13
-1.873167624e-06
2.276496088e-08
1.234487715e-09
-3.827433321e-12
2.389099679e-11
-1.419521278e-07
8.699208488e-07
-1.891647511e-07
5.060583426e-10
-1.951913236e-09
-5.651099097e-07
-2.255550344e-07
2.141272287e-07
2.204582377e-08
-1.255007117e-08
-6.499571192e-07
1.712936236e-05
-4.795245557e-07
-1.681975098e-08
-4.591857719e-10
-6.551712336e-06
7.98356183e-06
8.028602974e-06
2.213962735e-06
3.98299482e-08
6.623058827e-06
1.146012208e-05
-4.396294279e-06
3.753832746e-06
2.811590483e-07
1.665583922e-06
-9.109813978e-06
-2.392057464e-05
-6.135074399e-06
1.798984475e-07
-5.027706048e-07
4.366083997e-06
8.030449131e-05
3.281377814e-06
8.614704908e-08
-4.375834909e-07
-1.764731221e-08
3.251088838e-06
-3.231610238e-05
-1.705422573e-06
-1.184139968e-07
3.153371536e-07
-6.89433177e-06
4.63911086e-05
1.578941756e-06
1.969195563e-06
-9.585753738e-07
-1.641917048e-05
-8.54434889e-06
5.108314086e-07
-2.18777614e-06
2.369031595e-07
4.552626521e-07
6.889324951e-06
-1.030999159e-06
-1.666382612e-06
-1.011567165e-05
-2.327143706e-07
-4.014661313e-07
8.908432437e-07
3.960106695e-07
2.823790287e-06
2.374665451e-07
-2.51908639e-07
-8.490628844e-07
-3.310051284e-07
3.332844896e-06
-5.860293423e-08
-3.953736123e-07
-1.886667304e-05
3.216149734e-06
3.309310731e-06
-1.795426065e-07
-5.35228288e-07
1.069963419e-05
-3.412115772e-06
-3.151785843e-07
-1.043512541e-06
-2.973423759e-06
-1.453724943e-06
-5.931477365e-07
-1.33337257e-06
-4.124873247e-06
-1.043428882e-05
1.102163671e-05
-2.75559804e-06
-3.978709877e-06
-8.868168129e-06
-1.250593987e-05
6.477861963e-05
-3.347582241e-07
2.204666497e-06
-1.991534569e-05
-0.0001729239871
-0.0005947228945
-4.271584459e-06
5.274456904e-06
1.285454924e-05
-4.526367235e-05
-0.0003295214698
-1.495861033e-05
-9.306994373e-06
2.668270037e-05
0.0001449984735
0.0003989262598
5.864710734e-06
1.814191577e-05
5.361976413e-05
0.0001142810537
0.0001622309447
1.337709989e-05
1.683855264e-05
2.094809389e-05
2.462785386e-05
2.526425605e-05
5.342846927e-06
5.397513789e-06
4.813564487e-06
4.079254831e-06
3.304398088e-06
1.213263759e-06
1.052349376e-06
8.075627424e-07
5.560608533e-07
3.567933306e-07
2.222765636e-07
1.280528182e-07
2.062239929e-07
8.751557649e-08
5.437636305e-08
4.642015038e-08
2.266533118e-08
2.952123159e-08
1.239139507e-08
-1.432063164e-09
-2.659612881e-09
1.7094718e-09
-5.468206606e-10
3.667063611e-09
-3.477560666e-10
-1.057053807e-09
5.916227034e-09
-2.029418762e-09
2.893554433e-10
-9.85088248e-11
9.537239009e-11
2.12966504e-10
-5.293248452e-11
7.700895543e-11
5.043401204e-11
5.418949991e-11
3.687435952e-11
-4.932887029e-11
8.549764183e-12
1.805532999e-11
6.468711873e-12
5.29316504e-12
-7.281545688e-12
-3.5758799e-11
1.728798086e-11
-1.185682408e-11
-1.312137896e-11
-1.860007869e-11
-2.427258854e-11
1.993660263e-11
-4.350842729e-12
-1.182216861e-11
-4.886667943e-11
-8.88194113e-11
-1.554875652e-10
7.724333376e-13
1.508480104e-11
-1.823103934e-10
-9.427319841e-11
-8.05205927e-11
-3.079798705e-12
6.403767692e-11
5.009298176e-11
-1.847899309e-11
-4.257947838e-11
3.607087732e-12
-2.095769052e-12
3.274126463e-11
-9.679334823e-11
-2.027848652e-11
8.904977849e-12
3.816473188e-11
4.902576395e-11
-9.313390481e-11
2.074745995e-12
1.198534536e-11
2.379919119e-11
-2.245479894e-11
8.872381257e-11
-6.481997949e-11
9.042355256e-12
2.257946992e-11
2.112801938e-11
-3.821676692e-12
-1.014164818e-11
1.743252323e-11
-7.442416183e-12
-1.416560531e-12
3.768405483e-13
1.349214243e-12
5.818644714e-13
3.614320949e-12
1.506744839e-12
-1.045085916e-11
-9.364426639e-12
-1.404626138e-13
1.792963336e-13
1.186900978e-11
8.054138348e-12
-3.498651096e-13
2.338131719e-11
-1.704467523e-12
-3.105264307e-12
-6.609662289e-12
1.905600864e-12
-4.504998465e-12
3.141161846e-11
5.93263093e-11
-5.062434812e-11
8.907683837e-13
7.26939426e-11
-6.677177539e-11
-1.844815436e-11
-6.214293069e-12
2.054955272e-13
-2.879038352e-12
-3.816984079e-12
-2.620520557e-12
-4.756967786e-13
-3.923207608e-13
7.461188004e-13
-3.760878896e-13
4.092473623e-13
3.887726013e-14
1.333935171e-13
1.430274028e-12
1.378470564e-13
2.443055941e-13
1.928538331e-13
1.715038337e-13
-5.518222231e-14
-8.37445686e-15
-1.901089102e-13
-1.767147483e-13
-2.826653916e-13
-5.902723489e-14
-2.290554211e-13
-2.25096713e-13
-1.806011518e-13
-1.464144847e-13
-2.349241146e-13
-2.102181767e-13
-1.555604263e-13
-4.075584921e-13
-1.780663369e-13
-1.397579811e-13
-6.39355125e-14
-3.270102734e-14
-4.022528176e-14
1.367840923e-14
1.832097206e-14
8.014532053e-14
-5.126303307e-14
7.25728137e-16
4.850126692e-14
1.186621727e-14
-2.209868359e-13
-5.661433049e-14
-9.7600627e-14
-1.333263699e-13
-8.685501191e-14
-1.09918727e-13
-1.381528814e-13
-1.567408974e-13
-1.639290895e-13
-1.175069292e-13
-1.284456361e-13
-1.452799611e-13
-1.419093281e-13
-1.018600933e-13
-1.056369952e-13
-9.456203765e-14
-5.554913436e-14
6.299303579e-14
2.459455359e-13
1.794564314e-13
1.375414043e-13
-3.683678223e-14
-5.500921205e-14
-1.270228806e-14
5.466878834e-15
2.220913139e-15
1.942234347e-15
8.51047273e-15
-1.312714398e-14
4.207885566e-15
-2.85193496e-15
-2.759903681e-14
-6.366843702e-14
1.017007483e-14
6.799588157e-14
2.37262645e-14
-7.419104943e-13
-1.227703264e-12
-1.230872086e-12
-1.169869737e-12
-1.213494504e-12
-1.224938018e-12
-1.224331711e-12
-1.230467112e-12
-1.161845107e-12
-1.214558128e-12
-1.22011231e-12
-1.219733296e-12
-1.223289693e-12
-1.15768134e-12
-1.202695016e-12
-1.106339628e-12
7.441204968e-14
1.839696851e-13
1.794369848e-13
2.027387128e-13
3.611261131e-14
9.239797561e-14
9.783338379e-14
6.934785701e-14
-1.241267174e-13
-9.484461613e-14
-5.599559549e-14
2.464897587e-14
1.93987473e-15
2.225206491e-13
2.317257731e-13
1.584316761e-13
-7.011831464e-13
-7.957335394e-13
-5.031106857e-12
4.817315721e-12
-1.543810954e-12
-1.122611139e-13
-2.413241859e-12
8.152961345e-11
2.816753383e-12
-3.928372122e-24
-8.240031032e-28
-2.158533436e-31
-5.862325e-35
-1.53001323e-38
-3.7365792e-42
-8.498096599e-46
-1.811044697e-49
-3.65023881e-53
-7.012550078e-57
-1.289990965e-60
-2.277322317e-64
-3.862313559e-68
0
0
0
0
0
0
0
0
0
0
0
0
0
0
0
0
0
0
0
0
0
0
0
0
0
0
0
0
0
0
0
0
0
0
0
0
0
0
0
0
0
0
0
0
8.366988365e-12
-1.585838934e-10
1.605512572e-11
6.255102974e-12
-3.341349955e-28
-8.787332021e-32
-2.506175705e-35
-7.218634157e-39
-2.020468986e-42
-5.376941318e-46
-1.344515469e-49
-3.136580563e-53
-6.813930345e-57
-1.384840959e-60
-2.649527053e-64
-4.797254386e-68
0
0
0
0
0
0
0
0
0
0
0
0
0
0
0
0
0
0
0
0
0
0
0
0
0
0
0
0
0
0
0
0
0
0
0
0
0
0
0
0
0
0
0
0
-6.572065965e-10
1.146610433e-08
-1.149723043e-10
2.35535133e-12
-3.506892728e-28
-1.081897672e-31
-3.598924497e-35
-1.205869146e-38
-3.919159028e-42
-1.205738759e-45
-3.454886592e-49
-9.138228277e-53
-2.225946484e-56
-5.004026679e-60
-1.043989773e-63
-2.035640708e-67
0
0
0
0
0
0
0
0
0
0
0
0
0
0
0
0
0
0
0
0
0
0
0
0
0
0
0
0
0
0
0
0
0
0
0
0
0
0
0
0
0
0
0
0
-2.673717237e-08
-1.404016633e-09
-3.287126782e-10
-1.039736515e-10
-2.788813333e-27
-1.115824909e-30
-4.970417474e-34
-2.242306981e-37
-9.763799651e-41
-3.981878608e-44
-1.48889641e-47
-5.028332714e-51
-1.51911974e-54
-4.090923194e-58
-9.860649581e-62
-2.150126739e-65
0
0
0
0
0
0
0
0
0
0
0
0
0
0
0
0
0
0
0
0
0
0
0
0
0
0
0
0
0
0
0
0
0
0
0
0
0
0
0
0
0
0
0
0
-1.837967129e-08
-9.971019705e-09
6.20994067e-10
-3.5244518e-10
-2.76727614e-11
-1.258012109e-29
-5.728891611e-33
-2.730691581e-36
-1.289241821e-39
-5.844197883e-43
-2.488484612e-46
-9.775977919e-50
-3.488200914e-53
-1.11606264e-56
-3.175584096e-60
-8.023508851e-64
0
0
0
0
0
0
0
0
0
0
0
0
0
0
0
0
0
0
0
0
0
0
0
0
0
0
0
0
0
0
0
0
0
0
0
0
0
0
0
0
0
0
0
0
-5.46545753e-09
-5.358074343e-08
-3.871060985e-09
-1.75851354e-09
-3.031215585e-11
-1.756869009e-28
-7.531476283e-32
-3.581458485e-35
-1.735074484e-38
-8.225267664e-42
-3.724421982e-45
-1.583119957e-48
-6.226482855e-52
-2.236229215e-55
-7.246105788e-59
-2.098321208e-62
0
0
0
0
0
0
0
0
0
0
0
0
0
0
0
0
0
0
0
0
0
0
0
0
0
0
0
0
0
0
0
0
0
0
0
0
0
0
0
0
0
0
0
0
1.305177175e-08
-1.608441501e-07
-3.016257261e-08
-8.614468571e-10
-8.337201504e-10
6.642610299e-11
-1.878927373e-30
-8.721109891e-34
-4.265119686e-37
-2.07860885e-40
-9.801797943e-44
-4.389227493e-47
-1.84064479e-50
-7.143106049e-54
-2.536774226e-57
-8.156794684e-61
0
0
0
0
0
0
0
0
0
0
0
0
0
0
0
0
0
0
0
0
0
0
0
0
0
0
0
0
0
0
0
0
0
0
0
0
0
0
0
0
0
0
0
0
-1.097601403e-09
-1.069138575e-07
-1.648871449e-07
-1.316078213e-08
-1.281680394e-09
-3.990856501e-10
-3.075929938e-29
-1.334173543e-32
-6.479563969e-36
-3.216852266e-39
-1.567353679e-42
-7.323174627e-46
-3.230976557e-49
-1.330283737e-52
-5.05906777e-56
-1.75981345e-59
0
0
0
0
0
0
0
0
0
0
0
0
0
0
0
0
0
0
0
0
0
0
0
0
0
0
0
0
0
0
0
0
0
0
0
0
0
0
0
0
0
0
0
0
1.089723708e-07
-4.746139915e-08
-3.971676848e-07
-6.465849714e-08
-3.714880722e-09
-1.66046482e-10
1.138858776e-10
-6.815979813e-32
-3.173634516e-35
-1.580419289e-38
-7.897736289e-42
-3.835333623e-45
-1.77493214e-48
-7.721319697e-52
-3.12330152e-55
-1.163510565e-58
0
0
0
0
0
0
0
0
0
0
0
0
0
0
0
0
0
0
0
0
0
0
0
0
0
0
0
0
0
0
0
0
0
0
0
0
0
0
0
0
0
0
0
0
7.7490959e-08
-2.954381561e-08
-3.436091894e-07
-2.146308351e-07
-1.656168656e-08
1.399022272e-10
-3.815854244e-10
3.338902962e-13
-5.125775959e-33
-2.520635019e-36
-1.282736626e-39
-6.451022032e-43
-3.125625545e-46
-1.435061808e-49
-6.167167299e-53
-2.455419957e-56
0
0
0
0
0
0
0
0
0
0
0
0
0
0
0
0
0
0
0
0
0
0
0
0
0
0
0
0
0
0
0
0
0
0
0
0
0
0
0
0
0
0
0
0
8.321656614e-08
5.84699333e-07
-2.337773919e-07
-6.794942252e-07
-7.275962218e-08
1.032783282e-09
2.583852279e-09
2.439175756e-10
-6.256254349e-32
-2.855339979e-35
-1.435968476e-38
-7.342663372e-42
-3.677297111e-45
-1.764803407e-48
-7.99643885e-52
-3.381418341e-55
0
0
0
0
0
0
0
0
0
0
0
0
0
0
0
0
0
0
0
0
0
0
0
0
0
0
0
0
0
0
0
0
0
0
0
0
0
0
0
0
0
0
0
0
1.481820877e-06
2.600070803e-07
-1.041056151e-07
-1.345460137e-06
-2.216732093e-07
5.314415761e-09
2.171796859e-09
-3.766062208e-10
1.691841916e-11
-1.993683514e-32
-9.339063703e-36
-4.682641311e-39
-2.359013408e-42
-1.156942319e-45
-5.418639996e-49
-2.390776284e-52
0
0
0
0
0
0
0
0
0
0
0
0
0
0
0
0
0
0
0
0
0
0
0
0
0
0
0
0
0
0
0
0
0
0
0
0
0
0
0
0
0
0
0
0
-2.41646914e-07
-1.030737781e-08
-9.818222104e-08
-1.324224608e-06
-4.815621291e-07
3.152863112e-08
6.867684359e-09
2.877077941e-09
2.101679434e-10
-4.433414983e-32
-1.778077472e-35
-8.34009397e-39
-4.082280055e-42
-1.985035289e-45
-9.343187277e-49
-4.187282333e-52
0
0
0
0
0
0
0
0
0
0
0
0
0
0
0
0
0
0
0
0
0
0
0
0
0
0
0
0
0
0
0
0
0
0
0
0
0
0
0
0
0
0
0
0
-1.174708801e-07
-2.73970322e-08
-3.29306033e-07
-7.453754333e-07
-1.877663845e-06
9.184522705e-08
2.55429724e-08
9.453485854e-09
1.650986663e-09
1.159542518e-11
-2.340000321e-32
-9.509611534e-36
-4.334528654e-39
-2.020502493e-42
-9.264167001e-46
-4.09098341e-49
0
0
0
0
0
0
0
0
0
0
0
0
0
0
0
0
0
0
0
0
0
0
0
0
0
0
0
0
0
0
0
0
0
0
0
0
0
0
0
0
0
0
0
0
-1.988741829e-07
-7.69886026e-08
-8.848098777e-08
-8.065553603e-07
-5.899707473e-06
3.27017655e-07
8.677811224e-08
9.178164836e-09
4.706247774e-10
2.663172796e-10
-5.887110539e-29
-1.804498668e-32
-7.142027963e-36
-3.075441303e-39
-1.336086953e-42
-5.669206228e-46
0
0
0
0
0
0
0
0
0
0
0
0
0
0
0
0
0
0
0
0
0
0
0
0
0
0
0
0
0
0
0
0
0
0
0
0
0
0
0
0
0
0
0
0
-7.196275117e-07
-1.366693113e-06
-4.17940411e-07
-1.232977845e-06
-1.306428647e-05
1.411419169e-06
3.055814804e-07
-4.069627621e-09
6.830697204e-09
5.405960323e-10
-1.679892274e-28
-3.213893866e-32
-9.928589515e-36
-3.750121976e-39
-1.49828291e-42
-5.960426319e-46
0
0
0
0
0
0
0
0
0
0
0
0
0
0
0
0
0
0
0
0
0
0
0
0
0
0
0
0
0
0
0
0
0
0
0
0
0
0
0
0
0
0
0
0
5.038333751e-07
-1.068937172e-07
-2.058378844e-07
-2.434114334e-06
-1.741198874e-06
5.771129956e-06
8.934435766e-07
9.739685647e-08
1.313527144e-08
9.740454929e-10
-1.197062877e-24
-1.17770614e-28
-2.381680128e-32
-7.26500989e-36
-2.602341552e-39
-9.661166597e-43
0
0
0
0
0
0
0
0
0
0
0
0
0
0
0
0
0
0
0
0
0
0
0
0
0
0
0
0
0
0
0
0
0
0
0
0
0
0
0
0
0
0
0
0
1.486908478e-06
-7.30088833e-07
-9.232185964e-06
-0.0001117509481
2.792932513e-05
6.124264201e-06
6.652685756e-07
5.556226966e-08
1.00946843e-08
6.056602174e-10
-1.548019035e-11
-7.897123325e-25
-8.481629147e-29
-1.769764783e-32
-5.293418287e-36
-1.808280051e-39
0
0
0
0
0
0
0
0
0
0
0
0
0
0
0
0
0
0
0
0
0
0
0
0
0
0
0
0
0
0
0
0
0
0
0
0
0
0
0
0
0
0
0
0
2.699065596e-06
-9.254257472e-06
7.327177764e-06
7.167957292e-05
5.122077331e-05
6.691219135e-06
5.059099491e-07
4.306899193e-08
1.595580821e-09
8.566818486e-10
1.174855897e-10
7.501480335e-11
-4.300282414e-28
-5.064930346e-32
-1.097361202e-35
-3.246382062e-39
0
0
0
0
0
0
0
0
0
0
0
0
0
0
0
0
0
0
0
0
0
0
0
0
0
0
0
0
0
0
0
0
0
0
0
0
0
0
0
0
0
0
0
0
-0.0004347510301
-0.0005048777251
-7.60775028e-05
0.0001750136011
2.706123287e-05
2.392900943e-06
1.516969782e-07
4.231956331e-10
-5.234148008e-09
8.887024872e-10
-1.462397772e-10
-1.735071829e-10
-1.178104232e-10
-2.81699568e-28
-3.59033192e-32
-8.001913451e-36
0
0
0
0
0
0
0
0
0
0
0
0
0
0
0
0
0
0
0
0
0
0
0
0
0
0
0
0
0
0
0
0
0
0
0
0
0
0
0
0
0
0
0
0
-0.0008287495386
0.0005777779702
0.0004056260707
7.494798614e-05
8.990615321e-06
7.34420991e-07
8.396591215e-08
-1.490621864e-08
-7.137930977e-09
-7.26883435e-09
2.876167586e-10
-1.691881908e-10
-2.404983367e-10
-9.182793986e-12
-1.874149823e-28
-2.546953151e-32
0
0
0
0
0
0
0
0
0
0
0
0
0
0
0
0
0
0
0
0
0
0
0
0
0
0
0
0
0
0
0
0
0
0
0
0
0
0
0
0
0
0
0
0
0.0005294402467
0.0003604422501
9.986560053e-05
1.744566774e-05
2.037596235e-06
1.706968226e-07
-1.831942612e-08
-1.154797075e-09
6.244891626e-10
-7.034335512e-09
3.689804985e-10
1.508955935e-10
-1.904931545e-10
1.607971659e-10
-1.329724987e-27
-1.073315524e-31
0
0
0
0
0
0
0
0
0
0
0
0
0
0
0
0
0
0
0
0
0
0
0
0
0
0
0
0
0
0
0
0
0
0
0
0
0
0
0
0
0
0
0
0
0.0001349545978
6.236448411e-05
1.672601206e-05
2.899569233e-06
3.472658854e-07
2.891505988e-08
3.066573723e-09
5.410360694e-10
4.058171367e-10
-1.916341354e-10
-6.906425164e-09
1.223387814e-10
2.199964147e-10
-1.314483163e-10
-6.725945105e-12
-8.389863203e-28
-1.35609374e-37
-2.454475645e-41
-6.998874579e-45
-2.240409623e-48
-7.273006401e-52
-2.30601924e-55
-6.990647335e-59
0
0
0
0
0
0
0
0
0
0
0
0
0
0
0
0
0
0
0
0
0
0
0
0
0
0
0
0
0
0
0
0
0
0
0
0
0
1.897980213e-05
8.237575257e-06
2.184084643e-06
3.860291579e-07
5.14823005e-08
9.370445078e-09
-3.542454069e-09
1.080153488e-10
-4.508157436e-10
2.410940658e-10
1.147676457e-09
-7.090975183e-09
5.96520182e-11
2.91126079e-10
1.656502352e-10
6.110730495e-11
-1.968901797e-32
-1.846336581e-36
-3.34427928e-40
-8.559713169e-44
-2.5327977e-47
-7.800559675e-51
-2.372170063e-54
0
0
0
0
0
0
0
0
0
0
0
0
0
0
0
0
0
0
0
0
0
0
0
0
0
0
0
0
0
0
0
0
0
0
0
0
0
2.228672675e-06
9.116277587e-07
1.683708446e-07
3.100204552e-08
5.611928596e-09
2.668724713e-09
4.514987498e-10
1.430840583e-10
-1.65581535e-11
-3.287247916e-10
-1.324644274e-09
1.300174675e-09
-7.226604475e-09
4.815500159e-11
3.305367193e-10
-1.756129187e-10
6.959853215e-11
-2.479959509e-31
-2.357083223e-35
-3.98232843e-39
-9.618233536e-43
-2.721386194e-46
-8.060336013e-50
0
0
0
0
0
0
0
0
0
0
0
0
0
0
0
0
0
0
0
0
0
0
0
0
0
0
0
0
0
0
0
0
0
0
0
0
0
1.9898771e-07
7.443983634e-08
2.063057187e-08
6.075567058e-09
1.306519829e-09
5.194884886e-12
4.131351556e-11
-2.876396865e-11
7.998819305e-12
-9.614862211e-11
-3.179789064e-10
8.124499754e-11
-7.211161374e-09
-7.083789364e-09
7.061731704e-10
4.299545098e-10
-2.579579657e-12
-1.912606773e-27
-1.433374725e-31
-1.450648053e-35
-2.549337739e-39
-6.184817294e-43
-1.722911255e-46
0
0
0
0
0
0
0
0
0
0
0
0
0
0
0
0
0
0
0
0
0
0
0
0
0
0
0
0
0
0
0
0
0
0
0
0
0
3.773432684e-08
1.253664003e-08
2.79968387e-09
-9.542149261e-11
6.191362717e-11
-4.12972291e-12
7.41890213e-11
-4.1347304e-12
-2.798450881e-11
4.142209799e-11
-4.137130849e-10
-3.531926682e-10
-1.895997929e-10
-6.996207305e-09
1.018461409e-09
3.923432894e-10
2.671621842e-10
1.087558585e-11
-1.111507001e-27
-8.058966192e-32
-8.645261658e-36
-1.561009979e-39
-3.772688587e-43
0
0
0
0
0
0
0
0
0
0
0
0
0
0
0
0
0
0
0
0
0
0
0
0
0
0
0
0
0
0
0
0
0
0
0
0
0
3.283302611e-09
3.050496448e-09
1.454253951e-09
2.178937221e-10
6.544924431e-11
1.177526375e-11
-3.73845389e-11
-8.021252365e-11
-4.227011675e-11
-1.257528042e-11
-6.287246624e-12
-4.607035287e-10
-5.391662796e-11
7.609877332e-10
-7.108544049e-09
1.000396082e-09
5.049500119e-10
3.452058459e-10
-7.117193597e-11
-5.121547352e-31
-3.645680049e-35
-4.198061379e-39
-7.843390563e-43
0
0
0
0
0
0
0
0
0
0
0
0
0
0
0
0
0
0
0
0
0
0
0
0
0
0
0
0
0
0
0
0
0
0
0
0
0
-8.635345914e-10
9.080872498e-10
1.397546898e-10
2.341292904e-10
4.733441676e-11
-1.498063593e-11
-2.666073485e-11
9.642936151e-12
2.335174445e-11
-3.665376639e-11
7.727020774e-11
7.654314258e-11
-3.70245061e-10
-1.287472846e-10
1.199627331e-09
-7.18056759e-09
7.823140989e-10
3.722902033e-10
-1.696883215e-11
-4.026925904e-11
-2.509683318e-31
-1.796245429e-35
-2.185894161e-39
0
0
0
0
0
0
0
0
0
0
0
0
0
0
0
0
0
0
0
0
0
0
0
0
0
0
0
0
0
0
0
0
0
0
0
0
0
-1.065219524e-12
-2.119131349e-10
1.441417811e-11
1.834053159e-10
1.901429664e-11
6.70127192e-12
4.588107944e-11
-5.963316484e-11
-4.509927942e-11
3.177679375e-12
-1.601072748e-10
1.37761752e-11
-4.468170308e-10
-4.559251034e-10
2.008865832e-09
-7.022237006e-09
4.488530813e-10
5.307316718e-10
3.25546398e-10
-4.21232419e-11
-1.42949673e-30
-1.083725428e-34
-8.021467378e-39
0
0
0
0
0
0
0
0
0
0
0
0
0
0
0
0
0
0
0
0
0
0
0
0
0
0
0
0
0
0
0
0
0
0
0
0
0
-9.26240282e-11
-2.165823172e-12
-5.888257058e-12
-1.838412388e-10
-2.471528642e-11
1.291340953e-11
-1.02883453e-10
7.176941895e-11
-2.295222658e-11
-1.596897831e-11
-8.341220884e-11
-1.420488606e-11
9.679695594e-12
-4.28065787e-10
8.096396132e-12
1.206052887e-09
-7.091603936e-09
5.816522777e-10
5.191246152e-10
3.394656875e-10
-1.164872223e-11
-7.137071904e-31
-4.766577425e-35
0
0
0
0
0
0
0
0
0
0
0
0
0
0
0
0
0
0
0
0
0
0
0
0
0
0
0
0
0
0
0
0
0
0
0
0
0
1.62200118e-11
-1.310298177e-11
-5.404747416e-12
-6.042295173e-11
-2.911402647e-10
-1.80396433e-10
8.311920043e-11
-3.355861563e-10
6.786290668e-12
2.698661505e-11
-5.002009796e-11
-1.127570546e-11
-1.149436842e-11
-1.364004139e-09
-1.654945277e-10
7.372789267e-10
-9.381426482e-09
-6.939467831e-09
5.35367167e-10
4.053682244e-10
3.84164061e-11
-2.903763831e-30
-3.115884411e-34
0
0
0
0
0
0
0
0
0
0
0
0
0
0
0
0
0
0
0
0
0
0
0
0
0
0
0
0
0
0
0
0
0
0
0
0
0
-3.766321119e-11
-3.931771349e-11
-9.376680071e-12
-1.989672904e-11
-2.032669515e-10
-1.789210438e-10
1.389916983e-10
-6.556634345e-10
-2.562178313e-13
-1.532045191e-10
-5.915118468e-11
-6.629935985e-11
-7.962541665e-12
2.08698089e-11
-6.192533123e-10
-4.560698274e-11
1.232404676e-09
-7.002496169e-09
8.416297809e-10
5.343749918e-10
3.408097688e-10
9.732103417e-12
-1.586619441e-30
0
0
0
0
0
0
0
0
0
0
0
0
0
0
0
0
0
0
0
0
0
0
0
0
0
0
0
0
0
0
0
0
0
0
0
0
0
-1.342668581e-12
-6.355556077e-11
9.198976081e-11
-3.907453235e-10
-2.980376532e-10
-2.834069319e-10
4.343717571e-10
5.319067588e-11
1.496712363e-10
9.286383469e-13
-3.580382021e-11
-3.914943641e-11
6.437211104e-11
2.724608617e-11
-1.334037829e-09
1.876539442e-09
6.059945779e-10
7.922231106e-10
-7.075493535e-09
3.918603332e-10
5.245962991e-10
4.212024998e-10
1.727256873e-11
0
0
0
0
0
0
0
0
0
0
0
0
0
0
0
0
0
0
0
0
0
0
0
0
0
0
0
0
0
0
0
0
0
0
0
0
0
-4.724716509e-11
-4.384853986e-10
6.465225303e-11
-3.524755418e-11
-6.195637074e-10
-2.168752928e-10