/*--------------------------------*- C++ -*----------------------------------*\
  =========                 |
  \\      /  F ield         | OpenFOAM: The Open Source CFD Toolbox
   \\    /   O peration     | Website:  https://openfoam.org
    \\  /    A nd           | Version:  10
     \\/     M anipulation  |
\*---------------------------------------------------------------------------*/
FoamFile
{
    format      ascii;
    class       volScalarField;
    location    "0.0250188088";
    object      ddt0(rho,CH);
}
// * * * * * * * * * * * * * * * * * * * * * * * * * * * * * * * * * * * * * //

dimensions      [1 -3 -1 0 0 0 0];

internalField   nonuniform List<scalar> 
5170
(
-1.919367664e-108
-3.360503701e-107
-3.306808255e-106
-5.749544907e-105
-3.291540101e-103
-6.990054973e-104
-1.267630866e-102
-1.256855731e-101
-2.658724322e-100
-3.484721635e-98
-2.559862834e-99
-4.843063191e-98
-5.037725988e-97
-1.463444465e-95
-3.257362174e-93
-9.441161401e-95
-1.886835608e-93
-2.172127764e-92
-9.108077736e-91
-2.783228731e-88
-3.516142782e-90
-7.554764668e-89
-1.018216834e-87
-6.109469144e-86
-2.233491532e-83
-1.326829853e-85
-3.130221228e-84
-5.201031875e-83
-4.312361942e-81
-1.718657132e-78
-5.090339523e-81
-1.349016574e-79
-2.881352465e-78
-3.163372785e-76
-1.287632227e-73
-1.99135504e-76
-6.062837041e-75
-1.71707146e-73
-2.39736831e-71
-9.497064544e-69
-7.957691684e-72
-2.84225132e-70
-1.089242454e-68
-1.874653794e-66
-6.94689568e-64
-3.250335632e-67
-1.387344662e-65
-7.281643364e-64
-1.505636285e-61
-5.066385379e-59
-1.355390616e-62
-7.021931118e-61
-5.055703145e-59
-1.233205678e-56
-3.696541192e-54
-5.756018061e-58
-3.663764273e-56
-3.60583323e-54
-1.017909129e-51
-2.70209768e-49
-2.477053811e-53
-1.955031161e-51
-2.595304793e-49
-8.366056578e-47
-1.981239647e-44
-1.074154989e-48
-1.055690601e-46
-1.858142956e-44
-6.745688061e-42
-1.458523767e-39
-4.645849275e-44
-5.710787148e-42
-1.304974098e-39
-5.261840543e-37
-1.078102447e-34
-1.986715362e-39
-3.055295129e-37
-8.880529414e-35
-3.921334234e-32
-8.000875217e-30
-8.2274571e-35
-1.588626514e-32
-5.755336958e-30
-2.753270674e-27
-5.958877978e-25
-3.258202308e-30
-8.007554337e-28
-3.512583413e-25
-1.799002036e-22
-4.451786558e-20
-1.167766569e-25
-3.718001693e-23
-1.971069255e-20
-1.072342695e-17
-3.333520571e-15
-3.641585049e-21
-1.673949927e-18
1.26554326e-12
1.622892252e-13
-1.905892252e-12
2.391550409e-17
2.498587996e-17
2.556753084e-17
1.353110128e-17
-2.937775258e-17
1.009100026e-17
3.38036698e-18
3.959217483e-18
6.274226158e-18
-4.050169744e-17
7.323998371e-19
1.426348302e-17
-1.008177284e-17
-2.38294144e-20
-2.74425061e-18
-1.006613704e-18
-1.251080514e-18
-4.187625998e-18
2.60139045e-18
5.605963016e-17
-2.24312752e-15
-3.66395875e-17
1.965278303e-17
3.693297241e-17
6.725657177e-16
-3.841996848e-13
1.967836392e-14
9.268491856e-16
-3.192771217e-14
9.489596162e-13
-2.916000533e-12
2.44888697e-12
-4.409174285e-13
2.843206271e-12
2.623185537e-10
8.077108229e-10
-9.755991505e-12
4.215048385e-12
5.363186789e-10
-3.366068286e-10
1.350472319e-10
2.068906369e-10
8.219399045e-10
2.379886916e-10
-4.07948579e-10
-2.676956228e-11
-5.379184188e-10
-3.629795135e-10
9.734060536e-11
-1.699818164e-11
-1.168304068e-11
-1.736264668e-10
-1.231213142e-10
1.717507522e-10
-2.656154986e-11
-2.915977447e-11
2.009180256e-11
-4.298050461e-10
-2.922162639e-11
-6.495054078e-11
-7.963175761e-11
-2.18849005e-11
-1.619487827e-11
-3.249351649e-12
-1.077332315e-10
-8.036837963e-11
-2.587429588e-11
-2.372018003e-11
-6.316591393e-11
-1.294122939e-10
-1.287629291e-10
-7.054296493e-11
-5.401462802e-11
-1.123357955e-10
-2.308776974e-11
-7.263566421e-11
-1.156741808e-10
-1.025766004e-10
-1.523157019e-10
-7.635817067e-11
-1.677833228e-11
-1.486434527e-10
-1.469484482e-10
8.017797176e-12
9.314529224e-11
-6.938914176e-11
7.803382428e-13
-2.380681676e-12
-7.550869269e-11
8.16826561e-10
4.648482287e-11
-6.066479552e-11
-5.366460433e-11
4.446440733e-11
-8.188111679e-10
-6.363945794e-08
-2.422002357e-09
-2.479379147e-10
4.682423768e-11
-1.558119735e-10
1.266620502e-12
8.295209325e-13
9.075835209e-13
-2.273821171e-10
-5.994155102e-09
-7.665942828e-17
2.25223647e-13
-6.504506362e-12
7.245717681e-11
-1.824062371e-10
-7.177917137e-15
-1.114665534e-12
-3.588269738e-12
3.922819885e-11
2.496469498e-10
-3.020820206e-13
-7.769109687e-12
-5.90787969e-10
3.618043524e-10
4.197933696e-09
-6.39815928e-12
-3.273540265e-12
-2.576096908e-11
-2.316762176e-09
-3.499130484e-08
-5.622123294e-12
-7.411034586e-12
1.186405267e-10
3.456562042e-09
3.156749739e-08
-4.364140036e-12
-6.395484463e-12
4.275679019e-11
1.708268288e-09
2.76158983e-08
6.133219595e-13
1.092093153e-09
-4.214922333e-11
3.583892963e-10
7.016312579e-09
-3.051225792e-11
-6.327595373e-10
-1.835527644e-10
-8.975522645e-10
6.036024257e-10
-2.344495907e-12
-1.221766991e-10
-1.494305159e-10
-7.21439381e-10
-3.604462875e-11
-6.225545029e-12
-4.791400213e-11
-4.101063978e-10
-2.078480401e-09
4.122775891e-09
-2.631713051e-12
-1.576688385e-11
-1.468581465e-10
-1.372216371e-09
-1.072479744e-08
2.144681381e-10
1.479954735e-11
1.036290317e-10
1.574874814e-10
-4.113014422e-09
-1.68821714e-11
2.665967749e-11
8.764520161e-11
1.489933024e-10
1.027419005e-09
3.008969892e-11
1.362044659e-10
6.580749479e-10
2.772323077e-09
1.532602777e-08
-1.708361335e-11
-8.902604819e-11
-3.38791049e-10
-1.363761957e-10
2.394875429e-09
4.980049517e-11
6.569254413e-11
2.597364075e-10
4.762923841e-10
3.544309945e-08
-4.401433742e-10
-6.035793689e-10
2.747794297e-09
-3.948956983e-09
8.756461306e-08
-1.397342524e-09
-6.85005333e-09
-8.735718798e-09
-7.636659031e-08
-2.415698088e-07
8.767382837e-11
-2.263348336e-10
2.991101287e-09
2.485689934e-08
1.767577844e-07
7.622202716e-10
9.940289651e-10
2.51106891e-09
1.112459757e-08
6.00578136e-08
1.496268843e-09
2.079200937e-09
3.609226694e-09
6.996052888e-09
1.598955685e-08
1.181222294e-09
1.551683673e-09
2.4362888e-09
3.981102847e-09
6.513991126e-09
8.067752774e-10
8.623434674e-10
2.990589115e-10
1.324380188e-09
2.032409135e-09
1.11823006e-10
1.486608968e-10
3.046879871e-10
2.037024155e-10
4.619155868e-10
2.205251761e-11
-4.998362515e-12
5.90921536e-12
7.328601585e-11
7.280924763e-11
2.194275263e-12
2.385634343e-12
2.632327425e-12
6.884832373e-12
5.124142073e-12
1.538570777e-13
4.290901159e-13
1.559375217e-13
6.201168083e-13
8.085623784e-13
4.02151312e-14
7.138731557e-15
9.178496121e-15
4.655938184e-14
-1.375453061e-13
4.909730946e-15
3.942806623e-15
-3.845773596e-15
-7.987331938e-15
-1.989436589e-14
2.939087775e-15
3.51817728e-15
5.104185646e-15
3.937828101e-15
1.167770128e-15
-2.939887837e-18
4.135941381e-18
4.892109529e-17
2.066785037e-16
9.294217349e-17
-5.276742728e-20
-5.97489425e-20
-3.93786366e-19
5.944123071e-18
8.527909859e-18
-1.88141176e-21
2.225380988e-21
2.355490306e-20
3.232193582e-19
5.493524288e-19
-1.237750643e-22
-1.822559819e-22
2.073289134e-22
1.520004437e-20
2.803721712e-20
-3.567954648e-24
8.492215646e-24
-1.969455995e-23
8.210224238e-22
1.157692214e-21
-1.672076757e-25
-1.124117954e-25
1.714579857e-24
1.549961422e-23
6.26225768e-23
1.344532501e-26
1.701197192e-25
4.453625042e-25
6.948706601e-25
8.181280701e-25
4.546896085e-26
4.033807108e-26
3.223705084e-26
3.467505911e-26
4.854034464e-26
4.597123242e-27
4.858072657e-27
5.176465211e-27
1.491500751e-26
1.750173205e-26
3.173990522e-26
3.230487288e-26
3.250716965e-26
2.902429547e-26
9.877087716e-27
-3.381000025e-26
-3.229628297e-26
-2.781270193e-26
1.650584311e-26
-5.158917699e-26
4.775981799e-28
5.555850998e-28
-4.26664311e-28
1.610970846e-27
-5.263278357e-27
-1.125220045e-27
1.487440137e-27
1.860147113e-27
-3.14425915e-27
4.12028205e-27
-1.222262419e-26
3.991430037e-28
-7.957445153e-28
-6.446580072e-27
-2.5069156e-26
8.37982105e-27
-1.010807638e-26
1.287692174e-27
2.524001915e-27
3.367782121e-26
-5.252557133e-26
1.388694248e-25
-4.07958139e-26
-1.374686772e-27
-1.001764357e-25
4.344510309e-28
-3.360245072e-28
2.59705549e-27
-9.387962152e-28
-2.508305351e-28
5.975312298e-28
3.092142071e-28
-3.261415711e-28
-2.761969478e-28
-2.785380299e-28
-2.555038046e-28
-1.813685712e-28
-9.758970622e-29
2.61657007e-28
4.18585039e-29
-8.452520539e-29
1.397614204e-29
2.995320275e-28
2.705001632e-28
1.089155039e-28
3.176506461e-28
5.277616791e-29
4.814446746e-28
8.872177039e-29
8.897999596e-29
1.950499404e-28
1.786664068e-28
1.666983134e-28
1.730259022e-28
1.925835037e-28
4.312831566e-28
4.308461743e-28
4.239619429e-28
4.037235685e-28
3.68936492e-28
-6.388940398e-29
4.779991628e-30
3.298540685e-29
4.946735322e-29
1.496430709e-29
-1.530043496e-29
-1.040818439e-29
-7.758948866e-29
-3.601402451e-28
-9.508034972e-28
1.052158569e-27
1.789024329e-27
3.407174929e-27
-1.583826944e-27
-3.876221031e-27
2.91466471e-28
2.378924468e-27
1.841107114e-27
2.522413462e-27
1.867177305e-27
1.565920902e-27
1.545782374e-27
2.757987957e-27
1.36916602e-27
1.295537578e-27
3.669551859e-27
1.984768712e-27
-1.656111003e-27
6.610920436e-27
-2.089099726e-26
5.098128931e-26
1.149865775e-25
-6.458881549e-26
1.26669692e-25
-1.249685711e-25
2.085393594e-26
-4.129553448e-26
1.253723136e-25
4.074944659e-27
1.73713178e-25
1.633638766e-26
1.556373422e-26
2.20556261e-26
-1.736043831e-26
-7.751558031e-26
1.62203176e-24
1.760772666e-24
2.257641154e-24
-3.056949547e-24
3.968752811e-24
2.141293392e-24
2.064191024e-24
2.108375205e-24
2.006551584e-24
3.548447322e-24
-3.551331768e-24
2.731720459e-24
1.991069101e-24
2.978012342e-24
-3.926543681e-24
-4.6049146e-25
-5.201061973e-25
1.366280871e-24
-5.431146013e-25
5.280917964e-25
-2.457430416e-24
-2.472476086e-24
-2.466565199e-24
-2.380365436e-24
-2.089306974e-24
-2.718152301e-24
-2.780623983e-24
-2.832856189e-24
-2.791652846e-24
-2.390128736e-24
-1.622597636e-24
-1.672065872e-24
-1.697735448e-24
-1.631388207e-24
-1.210921867e-24
2.396574444e-08
-4.169491358e-09
-4.14274594e-10
5.048080835e-10
2.329868076e-08
-7.952479679e-08
1.756982685e-07
3.447428426e-08
1.926932363e-08
1.694124375e-08
7.071917187e-08
-3.468433933e-08
-3.472977307e-08
7.288899068e-09
-3.127879734e-08
-3.321855023e-08
-1.802787851e-08
1.430884986e-08
-2.663276472e-07
7.806602082e-07
2.366262333e-07
3.737527364e-08
9.426233824e-09
2.679517303e-09
7.372391978e-10
8.087423184e-11
1.072562349e-11
9.757463545e-13
-4.693670582e-13
-4.587245855e-14
-8.800373159e-16
2.178608022e-17
4.8553294e-18
5.011079217e-19
-5.183414059e-20
-5.127596406e-22
-6.197115987e-23
2.17806177e-24
-7.207807886e-26
3.84325003e-26
-4.802879087e-26
2.174637009e-25
1.735868563e-26
4.943450163e-27
8.709053088e-26
-1.475624577e-25
3.106162132e-26
5.585107497e-27
-5.198017932e-28
-5.11735981e-29
5.363667208e-29
1.545538926e-27
2.132803387e-28
3.424902598e-28
5.870861232e-29
-8.041908088e-28
6.580555535e-27
-5.087947797e-28
5.254634223e-27
-2.744100313e-26
3.260446161e-25
-3.95367897e-25
-8.406426179e-26
-8.49654534e-24
-6.882109864e-24
6.95867372e-24
4.318264461e-24
-1.505681796e-24
-1.90805929e-24
-7.63103989e-25
-2.116748242e-08
-5.658035711e-10
-3.330939596e-11
-5.568826543e-11
-1.165990622e-11
-3.916879827e-09
4.896047127e-10
-1.657863887e-09
-3.442263503e-10
-6.530172439e-12
-2.710947286e-10
9.689597864e-11
-2.124371102e-08
4.29367859e-09
7.227172375e-11
3.049125393e-08
7.335600106e-08
-2.806612704e-07
9.678682639e-08
-1.220525361e-08
-3.45039225e-07
-5.557561285e-06
-1.785171079e-05
-4.354864873e-06
-7.718744329e-08
5.775515582e-07
1.779682375e-06
-8.65463562e-05
1.3936626e-06
2.8286054e-07
5.669021046e-08
-1.851206252e-06
-2.861372417e-06
-2.037442279e-06
3.209642608e-09
1.179343072e-07
2.921247889e-07
1.610150186e-06
-8.329075532e-06
-9.287134955e-07
9.265832765e-08
2.260772554e-07
-1.035788865e-05
-0.0001536268048
-8.930845522e-06
9.065710923e-08
8.668309277e-07
5.8875469e-06
-0.0001097889531
4.23209786e-06
-6.872936291e-08
1.390561244e-07
6.44219458e-07
0.0001823697177
5.349158601e-07
6.25721545e-08
-2.774208623e-08
6.541187132e-06
9.116862628e-05
-0.0001701403641
-8.398938e-09
-3.140594067e-06
-5.539362832e-07
6.337731215e-06
-1.026961136e-05
5.382204665e-08
1.081961675e-06
1.691318958e-08
5.036705076e-07
1.462231361e-06
1.183706339e-08
1.335979159e-06
2.748229373e-08
9.622093286e-08
0.0001549398668
-2.750706982e-07
1.346358661e-06
1.776151478e-08
-1.308829541e-07
-0.0001927072468
2.924666723e-07
-8.111384424e-07
-1.711498661e-06
-1.604211995e-05
-2.677791092e-06
-1.30754524e-07
-2.992371461e-07
-1.255357214e-06
-6.869784544e-06
-2.889908639e-05
-5.703544647e-07
-2.393778323e-06
-8.230967705e-06
-1.769282188e-05
8.564839382e-05
2.787469737e-06
1.781879276e-05
7.002473156e-05
-0.0001047155438
-0.006117067277
8.674412546e-07
5.777145572e-06
2.98969103e-05
0.0001112408859
-1.778053991e-05
1.063464013e-07
6.37723036e-07
3.196510603e-06
1.240244523e-05
1.65169955e-05
1.504989135e-08
5.593618449e-08
2.423147918e-07
9.013324631e-07
1.536750881e-06
3.482042705e-09
6.898780564e-09
1.828580405e-08
5.485501255e-08
9.644064437e-08
7.501945977e-10
1.181848034e-09
1.869355675e-09
3.5834098e-09
5.464024792e-09
1.304620691e-10
1.752685201e-10
2.174432966e-10
2.420771734e-10
2.339852751e-10
1.568580494e-11
2.447619012e-11
2.199125683e-11
2.582114861e-11
2.442983956e-11
1.173957681e-12
3.004556047e-12
3.319731893e-12
9.916001507e-13
3.59050477e-12
1.718714259e-12
-3.93732813e-14
6.029469512e-14
1.661275712e-13
4.875833999e-13
-2.212793411e-14
4.330657528e-14
-1.203539631e-13
6.382633659e-15
-1.139508583e-14
-4.360324446e-15
1.174523033e-15
-6.574491202e-16
4.320589846e-16
-9.973105227e-17
-1.358116701e-16
4.762031083e-17
-1.304088606e-17
-1.823579188e-17
2.650673355e-17
3.076247529e-19
-1.663402682e-18
5.523547038e-18
-4.157658502e-18
-1.396335431e-19
5.02545037e-19
5.388502263e-19
3.04128837e-19
1.745327962e-19
3.879879325e-20
-2.286444657e-19
4.730225325e-21
-5.427924029e-22
-3.007565861e-22
8.741058641e-22
-4.495269042e-21
-6.628229138e-23
-4.686792476e-23
9.126959574e-25
-1.243351751e-24
-1.975369263e-22
3.770707705e-25
7.966515462e-25
-1.797731264e-24
4.389169345e-25
-4.684676175e-27
3.284107327e-25
1.277191324e-25
2.807591716e-25
2.94543019e-26
1.065328228e-25
2.663164911e-26
4.310552942e-26
-9.478002844e-26
6.69148469e-26
2.669211733e-26
3.22939244e-26
-1.204795332e-25
1.31228569e-26
1.849607515e-26
-3.751005819e-26
-1.972468533e-27
-8.141472236e-27
2.125773752e-27
2.897809806e-27
-3.13525026e-26
1.090490739e-26
7.084659953e-27
7.119371862e-28
-3.973049338e-26
-6.590713319e-27
9.060193333e-27
-2.506503424e-26
-6.430035695e-26
2.824498893e-26
-1.029289923e-26
-2.934720231e-26
-2.868264976e-27
3.270916565e-26
5.704336236e-26
-5.61931433e-27
-2.056545652e-26
2.315763001e-26
-5.054278554e-26
3.140189739e-26
4.585580305e-27
8.677472005e-26
1.132349091e-25
-1.298739364e-26
-3.722505489e-27
-8.864488578e-26
-1.479430817e-25
-7.60217765e-26
-1.573035459e-26
2.281660927e-27
-7.255651909e-27
-1.46441905e-26
-6.956086283e-27
-1.34871524e-27
-1.994117618e-27
-6.040408948e-28
6.147227706e-28
5.598953417e-28
2.926119995e-27
-2.724166032e-28
-1.397951739e-28
-2.124272009e-28
2.886400864e-27
5.487371699e-28
2.362411352e-27
1.679487708e-28
1.721447866e-28
-1.747280181e-29
-9.337721253e-29
2.749249484e-28
4.051988933e-28
-1.947381547e-28
1.377168943e-28
3.328709036e-28
-4.284681808e-29
2.431001696e-28
4.100872906e-28
4.098320576e-28
2.987456534e-28
1.170633937e-28
4.276734899e-28
1.942862561e-28
1.433894941e-28
-4.821085966e-28
6.105285111e-28
-1.74100392e-28
-2.078953598e-28
-3.231845477e-28
1.138321699e-27
1.966169012e-27
-5.07797305e-28
1.506451755e-27
-2.355568633e-27
-2.971778487e-27
2.585169479e-27
-2.507823637e-27
-2.71226976e-27
2.741530872e-27
1.581190524e-27
1.215896288e-27
1.934598392e-27
1.25548963e-27
1.286321968e-27
2.979397942e-27
-4.230455307e-27
1.40743283e-27
-8.398227063e-28
1.634541954e-27
1.416045121e-27
9.408556686e-29
-4.027315631e-26
-4.347086051e-26
-2.445090835e-26
-6.252562254e-26
-1.103688907e-25
5.864404349e-26
4.003987636e-26
7.036495088e-27
-1.170284097e-26
-8.146451228e-27
1.098400994e-25
1.151999529e-26
9.593753339e-26
-2.807799292e-26
-2.934934404e-25
-1.978547042e-25
-2.156579736e-25
2.458561814e-24
-2.336158124e-24
2.290468494e-24
1.825661051e-24
3.789278226e-25
2.218079559e-24
2.118659842e-24
2.103159402e-24
-1.395772231e-24
-1.472031227e-24
-2.045362637e-24
2.45524124e-24
1.968449937e-24
1.802827425e-24
2.92496018e-24
-2.693839968e-24
-3.39761233e-25
-7.708858894e-25
1.109739325e-24
2.061405278e-25
-2.00715615e-25
-9.419910631e-25
-2.526706716e-24
-2.374730564e-24
-2.814620675e-24
-2.83897992e-24
-2.836221644e-24
-2.860620487e-24
-2.980586616e-24
-3.012368616e-24
-2.693831684e-24
-2.436443192e-24
-2.294982493e-24
-2.050448051e-24
-3.466563574e-24
-1.247813423e-24
-1.877926593e-24
-2.212471092e-24
-7.335798324e-14
-2.310083977e-14
-9.228089437e-16
1.172507269e-16
1.449218596e-16
-3.140063227e-29
-8.528038722e-33
-2.225738105e-36
-5.435663254e-40
-1.236230204e-43
-2.634547787e-47
-5.310035128e-51
-1.020120187e-54
-1.876555274e-58
-3.312825825e-62
-5.618509437e-66
0
0
0
0
0
0
0
0
0
0
0
0
0
0
0
0
0
0
0
0
0
0
0
0
0
0
0
0
0
0
0
0
0
0
0
0
0
0
0
0
0
0
0
0
-3.634886241e-14
-1.686615226e-14
4.085948277e-15
-1.452390494e-16
-7.110515458e-27
-1.874604593e-30
-5.359108086e-34
-1.54691579e-37
-4.337826383e-41
-1.15622494e-44
-2.89504542e-48
-6.76156098e-52
-1.470379589e-55
-2.991092409e-59
-5.727495791e-63
-1.03784329e-66
0
0
0
0
0
0
0
0
0
0
0
0
0
0
0
0
0
0
0
0
0
0
0
0
0
0
0
0
0
0
0
0
0
0
0
0
0
0
0
0
0
0
0
0
1.257753494e-12
5.40459395e-12
-6.610767619e-14
4.504378514e-15
-4.234445804e-27
-1.306474752e-30
-4.346315611e-34
-1.456383172e-37
-4.733572904e-41
-1.456346275e-44
-4.173073237e-48
-1.103803266e-51
-2.68874719e-55
-6.044493741e-59
-1.261077982e-62
-2.458967821e-66
0
0
0
0
0
0
0
0
0
0
0
0
0
0
0
0
0
0
0
0
0
0
0
0
0
0
0
0
0
0
0
0
0
0
0
0
0
0
0
0
0
0
0
0
-3.346561534e-10
-4.48583703e-12
1.284582401e-13
4.223215368e-14
-3.00123737e-26
-1.200808811e-29
-5.348952745e-33
-2.413067158e-36
-1.050731175e-39
-4.285079937e-43
-1.602260497e-46
-5.41115379e-50
-1.634762384e-53
-4.402307206e-57
-1.06111096e-60
-2.313746406e-64
0
0
0
0
0
0
0
0
0
0
0
0
0
0
0
0
0
0
0
0
0
0
0
0
0
0
0
0
0
0
0
0
0
0
0
0
0
0
0
0
0
0
0
0
9.438288097e-10
3.311360509e-13
-1.50809223e-13
-3.25711283e-13
1.888532148e-14
-1.19382236e-28
-5.436564768e-32
-2.591351198e-35
-1.223454694e-38
-5.545980634e-42
-2.361501687e-45
-9.277121028e-49
-3.310198067e-52
-1.059108025e-55
-3.013521012e-59
-7.614013309e-63
0
0
0
0
0
0
0
0
0
0
0
0
0
0
0
0
0
0
0
0
0
0
0
0
0
0
0
0
0
0
0
0
0
0
0
0
0
0
0
0
0
0
0
0
1.153366519e-08
1.650592216e-10
6.287015596e-13
-2.405212907e-13
9.062856317e-14
-1.519858602e-27
-6.515280535e-31
-3.098183619e-34
-1.50093448e-37
-7.115265887e-41
-3.221795971e-44
-1.369466076e-47
-5.38615116e-51
-1.934417018e-54
-6.268102271e-58
-1.815099489e-61
0
0
0
0
0
0
0
0
0
0
0
0
0
0
0
0
0
0
0
0
0
0
0
0
0
0
0
0
0
0
0
0
0
0
0
0
0
0
0
0
0
0
0
0
8.050748632e-09
2.666505113e-10
7.64676511e-14
-3.581441828e-14
-3.803299358e-14
-3.369372541e-26
-1.305089772e-29
-6.057559006e-33
-2.962474017e-36
-1.443758242e-39
-6.808106923e-43
-3.048652737e-46
-1.278466313e-49
-4.961419208e-53
-1.761976695e-56
-5.66548766e-60
0
0
0
0
0
0
0
0
0
0
0
0
0
0
0
0
0
0
0
0
0
0
0
0
0
0
0
0
0
0
0
0
0
0
0
0
0
0
0
0
0
0
0
0
-7.428059711e-08
-6.842700811e-09
-3.58720772e-10
-8.162047415e-12
3.629968413e-12
6.59753991e-14
-1.693888784e-28
-7.347151081e-32
-3.568223203e-35
-1.771484817e-38
-8.631248814e-42
-4.032797696e-45
-1.779267807e-48
-7.325753216e-52
-2.785986382e-55
-9.691156302e-59
0
0
0
0
0
0
0
0
0
0
0
0
0
0
0
0
0
0
0
0
0
0
0
0
0
0
0
0
0
0
0
0
0
0
0
0
0
0
0
0
0
0
0
0
2.388576511e-07
3.361465828e-08
6.690769378e-10
-1.715771016e-11
-6.694897971e-13
-5.413867737e-13
-8.345025478e-14
-2.711904214e-31
-1.262712457e-34
-6.288151365e-38
-3.142367524e-41
-1.526023917e-44
-7.062260793e-48
-3.072254593e-51
-1.242747991e-54
-4.629592662e-58
0
0
0
0
0
0
0
0
0
0
0
0
0
0
0
0
0
0
0
0
0
0
0
0
0
0
0
0
0
0
0
0
0
0
0
0
0
0
0
0
0
0
0
0
3.720185084e-07
2.553053389e-08
1.094421542e-09
7.415194456e-12
-1.23004572e-12
-3.060492924e-14
-1.332607825e-13
-4.70541759e-29
-2.010711202e-32
-9.887774502e-36
-5.031820127e-39
-2.530552765e-42
-1.226092424e-45
-5.629325196e-49
-2.419195631e-52
-9.631870202e-56
0
0
0
0
0
0
0
0
0
0
0
0
0
0
0
0
0
0
0
0
0
0
0
0
0
0
0
0
0
0
0
0
0
0
0
0
0
0
0
0
0
0
0
0
1.441344325e-07
1.763733082e-06
-1.045778993e-09
4.813995066e-10
3.596137709e-11
3.483253085e-13
-2.292300212e-13
-6.597966397e-28
-2.263361642e-31
-1.030713208e-34
-5.177795252e-38
-2.645782327e-41
-1.324397481e-44
-6.353659726e-48
-2.878006631e-51
-1.216697407e-54
0
0
0
0
0
0
0
0
0
0
0
0
0
0
0
0
0
0
0
0
0
0
0
0
0
0
0
0
0
0
0
0
0
0
0
0
0
0
0
0
0
0
0
0
7.770859455e-06
1.279014109e-06
7.358849816e-08
1.981397875e-09
1.609435019e-12
-1.277067408e-13
2.559609321e-14
-1.776805814e-26
-4.081315951e-30
-1.546349141e-33
-7.244184525e-37
-3.632393888e-40
-1.82995433e-43
-8.974809288e-47
-4.203443988e-50
-1.854616345e-53
0
0
0
0
0
0
0
0
0
0
0
0
0
0
0
0
0
0
0
0
0
0
0
0
0
0
0
0
0
0
0
0
0
0
0
0
0
0
0
0
0
0
0
0
2.73383971e-06
2.855070656e-07
9.624655663e-09
-4.203962587e-10
-1.026020194e-11
5.118361287e-12
3.386475527e-13
-2.807607187e-13
-2.404880159e-28
-6.442962503e-32
-2.57450028e-35
-1.206209587e-38
-5.904992815e-42
-2.873411605e-45
-1.353797256e-48
-6.073878208e-52
0
0
0
0
0
0
0
0
0
0
0
0
0
0
0
0
0
0
0
0
0
0
0
0
0
0
0
0
0
0
0
0
0
0
0
0
0
0
0
0
0
0
0
0
2.442853939e-07
1.243063364e-08
-1.779659041e-06
-1.310679108e-08
-2.231508049e-09
-9.778374586e-11
2.704911577e-13
1.910072091e-13
8.452081013e-15
-7.642075747e-30
-2.250530539e-33
-9.124585001e-37
-4.16233442e-40
-1.94395497e-43
-8.934638589e-47
-3.9556674e-50
0
0
0
0
0
0
0
0
0
0
0
0
0
0
0
0
0
0
0
0
0
0
0
0
0
0
0
0
0
0
0
0
0
0
0
0
0
0
0
0
0
0
0
0
4.643211461e-08
-8.263257318e-08
-2.107015456e-08
-6.901366707e-09
-5.025101283e-10
-2.812591037e-12
1.535466814e-12
7.730742211e-14
-1.025140095e-13
-6.725149203e-28
-1.170299483e-31
-3.587726248e-35
-1.420012895e-38
-6.114430977e-42
-2.656135852e-45
-1.126939156e-48
0
0
0
0
0
0
0
0
0
0
0
0
0
0
0
0
0
0
0
0
0
0
0
0
0
0
0
0
0
0
0
0
0
0
0
0
0
0
0
0
0
0
0
0
-1.72306215e-06
-6.804577017e-06
-1.653479316e-06
-1.512275483e-07
-6.234726814e-09
1.791439146e-11
8.108027278e-12
1.480967215e-12
-3.313669399e-13
-1.633730271e-25
-1.446410969e-29
-2.742922079e-33
-8.439158962e-37
-3.187264047e-40
-1.275678737e-43
-5.087563948e-47
0
0
0
0
0
0
0
0
0
0
0
0
0
0
0
0
0
0
0
0
0
0
0
0
0
0
0
0
0
0
0
0
0
0
0
0
0
0
0
0
0
0
0
0
-2.546778712e-05
-9.680384633e-07
1.638358724e-07
9.973959531e-09
3.648024848e-09
4.621082423e-10
2.985724891e-11
4.557925223e-12
3.035118099e-13
-1.819715128e-24
-1.505427275e-28
-1.478641383e-32
-2.983944648e-36
-9.097298059e-40
-3.259258317e-43
-1.21059224e-46
0
0
0
0
0
0
0
0
0
0
0
0
0
0
0
0
0
0
0
0
0
0
0
0
0
0
0
0
0
0
0
0
0
0
0
0
0
0
0
0
0
0
0
0
-5.058094447e-06
-7.188138802e-07
-3.973330904e-08
2.593087689e-07
2.215030487e-08
1.154543227e-09
4.193695001e-11
1.263837301e-12
1.746684325e-18
-3.816920682e-17
-8.754933507e-25
-6.782486482e-29
-7.320648355e-33
-1.535852023e-36
-4.602904457e-40
-1.572896646e-43
0
0
0
0
0
0
0
0
0
0
0
0
0
0
0
0
0
0
0
0
0
0
0
0
0
0
0
0
0
0
0
0
0
0
0
0
0
0
0
0
0
0
0
0
-9.697903991e-06
-3.71278466e-06
-1.283884623e-06
-2.114654369e-07
-2.242018512e-08
-1.285734087e-09
-2.151684031e-11
5.101208309e-12
7.225422422e-13
9.150406169e-18
3.586471194e-17
-4.910364631e-25
-3.707946276e-29
-4.33913998e-33
-9.341861828e-37
-2.755351227e-40
0
0
0
0
0
0
0
0
0
0
0
0
0
0
0
0
0
0
0
0
0
0
0
0
0
0
0
0
0
0
0
0
0
0
0
0
0
0
0
0
0
0
0
0
-2.845843718e-05
-1.699121736e-05
1.047790696e-06
3.413443883e-07
1.832274477e-08
1.209190798e-10
-6.826300596e-12
5.028270768e-12
6.570979791e-13
2.591330475e-18
2.881418235e-17
-2.803574521e-24
-3.873124522e-28
-2.925828384e-32
-3.724661628e-36
-8.293911597e-40
0
0
0
0
0
0
0
0
0
0
0
0
0
0
0
0
0
0
0
0
0
0
0
0
0
0
0
0
0
0
0
0
0
0
0
0
0
0
0
0
0
0
0
0
4.901523921e-05
7.857358408e-06
1.078643298e-06
7.717446906e-08
1.076166811e-09
-9.723529642e-11
3.999529706e-11
1.795631993e-12
1.943684503e-13
1.883740785e-18
2.18972196e-18
9.631820947e-18
-1.706907714e-24
-2.070777174e-28
-1.604148888e-32
-2.180029844e-36
0
0
0
0
0
0
0
0
0
0
0
0
0
0
0
0
0
0
0
0
0
0
0
0
0
0
0
0
0
0
0
0
0
0
0
0
0
0
0
0
0
0
0
0
7.238207682e-06
1.235797714e-06
1.245214817e-07
4.15799507e-09
-1.95861965e-10
8.7670798e-12
-2.72063872e-11
-1.433378142e-12
5.506775878e-14
1.693010626e-19
-2.558469935e-19
-8.217627024e-19
-7.651222581e-17
-1.517848453e-27
-1.635319887e-31
-1.320008073e-35
0
0
0
0
0
0
0
0
0
0
0
0
0
0
0
0
0
0
0
0
0
0
0
0
0
0
0
0
0
0
0
0
0
0
0
0
0
0
0
0
0
0
0
0
5.976293268e-07
9.857205586e-08
7.260629768e-09
8.826846355e-11
3.785871863e-11
1.602941307e-11
4.175731257e-12
3.232416161e-13
4.525481025e-14
-1.055352557e-19
-1.251178233e-19
1.756464794e-19
-7.165095104e-18
-3.736888986e-24
-8.468069244e-28
-8.227669238e-32
-1.48605673e-41
-2.70200778e-45
-7.678910295e-49
-2.44359548e-52
-7.903939251e-56
-2.501406961e-59
-7.575847841e-63
0
0
0
0
0
0
0
0
0
0
0
0
0
0
0
0
0
0
0
0
0
0
0
0
0
0
0
0
0
0
0
0
0
0
0
0
0
3.781274697e-08
5.89412331e-09
4.813824308e-10
8.098424593e-11
2.652091735e-11
5.592306481e-12
-1.022713124e-13
1.040976837e-14
4.151469185e-16
-1.097160211e-15
-5.044687794e-19
-1.206884608e-18
-1.257197854e-17
7.647753008e-17
-3.416364865e-27
-6.685519153e-31
-2.157594035e-36
-2.032538321e-40
-3.669221433e-44
-9.336005438e-48
-2.752517743e-51
-8.461496738e-55
-2.570748972e-58
0
0
0
0
0
0
0
0
0
0
0
0
0
0
0
0
0
0
0
0
0
0
0
0
0
0
0
0
0
0
0
0
0
0
0
0
0
2.255872682e-09
4.489937439e-10
1.279199305e-10
3.949490864e-11
7.801097561e-12
1.773717179e-12
1.943810783e-13
1.994274605e-14
1.458554113e-15
-9.09310323e-21
1.370353368e-19
-4.094069382e-18
4.40594395e-17
-2.622960582e-16
-7.344852486e-17
-2.045949245e-27
-3.410529331e-31
-2.730061676e-35
-2.586105874e-39
-4.343491326e-43
-1.04526147e-46
-2.951967725e-50
-8.735082211e-54
0
0
0
0
0
0
0
0
0
0
0
0
0
0
0
0
0
0
0
0
0
0
0
0
0
0
0
0
0
0
0
0
0
0
0
0
0
1.180619818e-10
5.349416392e-11
2.028158363e-11
6.99801746e-12
1.124222581e-12
1.873437594e-14
2.006398765e-14
1.698071034e-24
-1.406219633e-23
-4.783853458e-22
1.329328154e-20
1.953916038e-21
-1.77068971e-18
-3.215816454e-17
-2.282170157e-16
-1.062634482e-15
-1.796271177e-30
-2.56133453e-34
-1.920955728e-38
-1.942276981e-42
-3.409364664e-46
-8.266441114e-50
-2.302195775e-53
0
0
0
0
0
0
0
0
0
0
0
0
0
0
0
0
0
0
0
0
0
0
0
0
0
0
0
0
0
0
0
0
0
0
0
0
0
2.102689902e-11
7.61051127e-12
2.137454385e-12
-1.16602878e-12
7.980719513e-15
1.142284548e-22
3.683234384e-24
-1.687166275e-24
-2.273373681e-23
-2.421414412e-22
1.701379037e-21
-1.60059519e-20
-4.727550584e-20
7.932687011e-19
-3.67790258e-17
-3.041500121e-17
-3.516835305e-27
-9.278271554e-31
-1.147655684e-34
-8.321054256e-39
-8.926431221e-43
-1.611781388e-46
-3.895397678e-50
0
0
0
0
0
0
0
0
0
0
0
0
0
0
0
0
0
0
0
0
0
0
0
0
0
0
0
0
0
0
0
0
0
0
0
0
0
8.812836244e-13
9.851198648e-13
2.829215581e-13
4.438781506e-14
-3.351225251e-17
8.721549999e-24
3.965519104e-24
4.445608493e-24
-2.056495974e-23
-9.774580377e-23
-1.776277078e-21
9.045909395e-21
2.927273472e-19
-6.495027623e-19
-1.962317194e-18
5.911293543e-17
-2.489564375e-16
-3.128842337e-30
-7.051676383e-34
-7.369567834e-38
-5.247848222e-42
-6.036560632e-46
-1.126855739e-49
0
0
0
0
0
0
0
0
0
0
0
0
0
0
0
0
0
0
0
0
0
0
0
0
0
0
0
0
0
0
0
0
0
0
0
0
0
-2.832477529e-13
2.429282714e-13
4.856303174e-15
1.591305951e-15
1.847910571e-16
-9.468952649e-24
1.124040441e-23
-1.320002255e-24
9.077119225e-24
5.923451802e-24
-3.87904412e-23
-1.199816769e-21
1.780833221e-20
2.903003059e-20
9.967508535e-19
-3.285108647e-17
-3.587729659e-16
-9.768855498e-16
-1.680997365e-30
-3.216286e-34
-2.8414535e-38
-2.03370183e-42
-2.474864469e-46
0
0
0
0
0
0
0
0
0
0
0
0
0
0
0
0
0
0
0
0
0
0
0
0
0
0
0
0
0
0
0
0
0
0
0
0
0
2.022949401e-14
4.18158634e-15
1.902744604e-16
1.073422794e-17
-7.099353631e-18
6.306300961e-19
7.199521181e-25
-1.96815131e-24
-1.298024707e-23
3.211200928e-24
-4.541930578e-23
2.639923474e-22
-8.28735557e-21
8.121780061e-21
5.704227991e-19
-9.652001042e-18
-1.501929523e-16
-7.313033871e-16
-4.435421259e-30
-1.336085152e-33
-2.143364744e-37
-1.627136021e-41
-1.204069059e-45
0
0
0
0
0
0
0
0
0
0
0
0
0
0
0
0
0
0
0
0
0
0
0
0
0
0
0
0
0
0
0
0
0
0
0
0
0
6.498290689e-16
1.643630777e-16
5.683367357e-19
-8.552829648e-21
-4.34412773e-19
-1.941424056e-23
8.805005785e-24
3.717171092e-24
-1.087887241e-24
-1.345579737e-23
1.768271745e-23
-4.529385756e-23
2.185659997e-22
-1.970004346e-21
-9.34433512e-21
1.742649379e-19
-6.623613099e-17
-2.319521255e-16
-5.034895708e-16
-2.430589552e-30
-6.344040572e-34
-8.430572641e-38
-5.630449127e-42
0
0
0
0
0
0
0
0
0
0
0
0
0
0
0
0
0
0
0
0
0
0
0
0
0
0
0
0
0
0
0
0
0
0
0
0
0
1.808376709e-17
7.051030255e-18
3.962085835e-19
-3.166564754e-22
-4.309863827e-23
-4.922368149e-24
5.678793871e-25
-8.326684349e-25
-2.097657407e-24
8.600995015e-24
7.871749664e-25
2.306767543e-23
-1.565518298e-22
9.008867957e-21
-4.779355844e-20
6.886297828e-19
-7.840120318e-18
-1.082464157e-16
-5.985666148e-16
-5.460308964e-30
-1.975512266e-33
-4.37688246e-37
-4.707020971e-41
0
0
0
0
0
0
0
0
0
0
0
0
0
0
0
0
0
0
0
0
0
0
0
0
0
0
0
0
0
0
0
0
0
0
0
0
0
1.805461114e-18
2.003278947e-19
2.020417017e-20
-1.359659034e-23
-6.468431868e-24
-3.61489561e-24
1.059585992e-23
-2.862218835e-24
1.541864637e-24
3.834194799e-24
3.257251274e-24
1.072463449e-23
-1.088138881e-22
8.604882504e-23
6.282478675e-21
-9.902460617e-20
-7.670332478e-19
-3.578217401e-17
-7.778703195e-17
3.865723595e-17
-3.031591063e-30
-9.643893454e-34
-1.813311756e-37
0
0
0
0
0
0
0
0
0
0
0
0
0
0
0
0
0
0
0
0
0
0
0
0
0
0
0
0
0
0
0
0
0
0
0
0
0
7.948817565e-20
-2.224378689e-21
-8.035202888e-24
-8.871958183e-24
7.138765277e-24
-4.103814792e-24
3.250938368e-25
-2.569408926e-24
1.869816804e-24
1.5625917e-24
-7.929906452e-24
1.252478865e-23
-1.424087616e-23
-3.988233138e-23
-3.890816786e-22
4.656810632e-20
-4.911801539e-20
-3.586385502e-19
-4.039766879e-17
-1.922774915e-16
-9.613947405e-16
-2.349532553e-33
-6.457476059e-37
0
0
0
0
0
0
0
0
0
0
0
0
0
0
0
0
0
0
0
0
0
0
0
0
0
0
0
0
0
0
0
0
0
0
0
0
0
1.367579724e-21
1.542859959e-22
1.00146932e-23
1.775340349e-24
-9.96770036e-25
-5.633437745e-24
-7.32756973e-25
-6.836754456e-25
-2.329813491e-24
5.362629438e-25
7.025470327e-24
-6.096625744e-24