/*--------------------------------*- C++ -*----------------------------------*\
  =========                 |
  \\      /  F ield         | OpenFOAM: The Open Source CFD Toolbox
   \\    /   O peration     | Website:  https://openfoam.org
    \\  /    A nd           | Version:  10
     \\/     M anipulation  |
\*---------------------------------------------------------------------------*/
FoamFile
{
    format      ascii;
    class       volScalarField;
    location    "0.0250188088";
    object      ddt0(rho,OH);
}
// * * * * * * * * * * * * * * * * * * * * * * * * * * * * * * * * * * * * * //

dimensions      [1 -3 -1 0 0 0 0];

internalField   nonuniform List<scalar> 
5170
(
4.510915762e-06
4.698519395e-06
4.780553034e-06
8.024534414e-07
-2.823956228e-08
4.718989467e-06
4.719486253e-06
3.820131998e-06
-2.901663945e-06
-4.740100997e-06
3.317864358e-06
2.424060027e-06
4.7152905e-07
-3.638194785e-06
-2.865486106e-06
-3.128052399e-06
-1.967361724e-06
8.198842625e-07
5.937932518e-06
-2.732353205e-06
1.857240686e-06
5.61160333e-07
-2.280229372e-06
-2.437480027e-06
2.733006834e-07
-1.715611195e-06
-3.835729443e-07
2.304891321e-06
1.946083005e-06
-3.333441712e-06
-1.460136112e-07
-1.464464674e-06
-3.928577181e-06
-2.496437845e-07
4.033232813e-06
1.167100754e-06
2.428158689e-06
3.073160631e-06
-4.128393244e-07
-3.43963536e-06
-3.258130314e-06
-2.320317644e-06
-4.918871727e-07
1.782007518e-06
2.736403717e-06
9.797578841e-07
-1.4634731e-07
-1.770820921e-06
-2.970443109e-06
-2.245128131e-06
2.067990452e-06
1.143081338e-06
2.1738313e-08
-1.287973202e-07
1.99589298e-06
1.74402746e-06
2.450963748e-06
1.611975622e-06
2.231036163e-06
2.466775844e-07
1.046372733e-06
1.745619887e-06
2.289815035e-06
1.25539978e-06
-2.099712232e-06
1.296353218e-06
1.902162901e-06
2.070972965e-06
6.512931114e-07
-1.81325912e-06
2.126253923e-06
1.295068142e-06
1.126406096e-06
1.111130192e-06
-2.221657925e-06
-4.156386564e-07
-8.783861234e-07
-7.384644506e-07
1.866429794e-06
-1.557694625e-07
-1.388914355e-06
-7.960829754e-07
-1.147695216e-06
-1.526752382e-06
2.121763455e-06
2.134027064e-06
1.625290183e-06
2.190610776e-06
8.484162917e-07
-2.244232049e-06
-1.558290032e-06
-1.154595197e-06
-1.912103154e-06
-1.115001919e-06
2.205492626e-06
4.153684237e-07
2.391377697e-06
1.57125453e-06
-3.592628146e-06
-3.836957817e-06
-3.48759826e-05
-9.112707343e-05
-5.420623505e-05
-0.0005220192227
-0.0006787367444
-0.005360618375
-0.000341463011
-0.0001938860953
-0.002289133042
0.003036857532
-0.001119810982
0.0001502332632
0.0001278513483
-0.0002481754422
-0.001086493788
-0.001220318172
-0.0001045211245
0.0001332103598
-0.0002654586955
-0.0006999297679
-0.00213303706
0.0002284688619
0.001560433327
-0.001989752857
-0.0001223047842
0.001453367823
0.001155973273
0.000844293126
-0.0006168021411
-0.001618905711
-0.0003606332208
0.0004460611257
0.001454363419
-0.001340805684
-0.002439018702
-0.003074752149
-0.0006111068952
0.0003202810125
-0.0007506174079
-0.001685967344
-0.002208796975
-0.001714762615
-0.00108319193
-0.003341334117
-0.00198750344
-0.002033523026
-0.004722757902
-0.004081626026
-0.002067935962
0.0003528559201
0.0009346942483
-0.002591597064
-0.002561013418
-0.001620865301
-0.0001777454647
0.0002077449741
0.004117075349
-0.001535287939
-0.0001361114958
-0.000719112595
-0.0005927629759
5.854502274e-05
8.906078279e-05
-4.075230357e-05
-0.0008887844208
-0.0008643874834
-4.838937038e-05
-4.075885537e-05
-0.000815258018
-0.0009143122257
-0.000723667587
-0.0009793426364
-0.0005720388298
-0.0008717440771
-0.0008470022114
-0.0006110762098
-0.001085579049
-0.0007252252276
-0.0007827815111
-0.00100236437
-0.0006498919002
-0.001096607876
-0.0009491796315
-0.0005927839132
-0.0006551300136
-0.0009037115261
-0.0008365750779
-0.0007384422928
-0.0008131712222
-0.001150020573
-0.0004098090711
-0.0007409778718
-0.0009859804962
-0.0008568881588
0.001491577369
-0.003632547449
0.0006212521341
0.0005128822823
-0.001521023264
0.0005035119217
1.253544636e-06
-4.107630614e-06
-3.835578083e-06
1.749841046e-06
-5.619207512e-05
-1.628388289e-06
-3.288552409e-06
-3.182867437e-06
3.657225271e-06
7.852261619e-05
-1.081481732e-06
-2.492246489e-06
0.0001266778905
4.569955074e-06
1.633289876e-05
1.11626111e-06
-3.071760166e-06
6.835616231e-05
4.022027323e-06
1.777621079e-05
-1.027790158e-06
1.691094313e-05
-0.001343529411
2.118900283e-05
-2.216617277e-05
1.468948799e-06
-2.547411346e-06
0.0001702610965
4.234457082e-06
2.698232191e-05
-1.097348634e-06
-3.612954377e-06
1.353331215e-07
1.086663473e-06
1.873114536e-05
4.917208494e-07
-2.097123627e-05
2.967749256e-06
2.946130436e-07
5.609784898e-06
7.669177924e-07
-6.949685013e-06
1.861134107e-06
1.048681905e-06
4.700565014e-06
-3.98337267e-06
1.05762574e-05
5.45245688e-07
4.484345269e-07
8.236426183e-07
-3.407144912e-06
1.354165348e-06
-6.001607459e-07
-3.859966461e-06
1.517642333e-05
-5.678162491e-07
6.060157191e-08
-5.536760477e-07
-4.621687845e-06
-3.408885388e-05
-3.163509026e-07
5.010991343e-09
5.342854123e-07
2.59270901e-06
-1.648007995e-06
-1.010628652e-07
4.243243546e-08
6.703212454e-07
2.847090251e-06
8.768408728e-06
-3.489894313e-08
2.202563797e-07
1.503895701e-06
6.826492049e-06
2.756412675e-05
2.143433333e-08
1.735984063e-07
1.145642373e-06
4.944118098e-06
1.213257317e-05
-4.811659461e-07
-2.02329534e-06
-2.490650776e-07
-7.82513885e-06
-0.0001082073373
-1.299511385e-06
-5.740973903e-06
-3.467460792e-05
-3.509975464e-05
-8.212363769e-05
1.068728499e-06
1.89736574e-05
-1.418972304e-05
6.046558305e-05
0.0001819840299
-3.944071829e-07
4.395007852e-07
4.279782466e-06
5.388967029e-05
0.000296726884
-2.627971237e-06
-9.109639312e-07
1.054320305e-05
6.391716565e-05
0.000256820733
-3.919180474e-06
-2.803783499e-06
3.351532587e-06
2.786667433e-05
0.0001060469951
-1.179270248e-06
-7.829214333e-07
1.05128123e-06
7.448705534e-06
2.62499261e-05
4.767558164e-06
4.341243622e-06
4.130071546e-07
5.442382314e-06
9.633236528e-06
3.486847331e-06
3.681295933e-06
4.927672959e-06
4.023622249e-06
5.976563759e-06
2.708314548e-06
2.364049624e-06
2.519825958e-06
3.418951626e-06
3.456481591e-06
1.599613627e-06
1.621428298e-06
1.652592111e-06
1.76116011e-06
1.757879821e-06
8.830812773e-07
8.913688242e-07
8.978025928e-07
9.03150962e-07
9.196667001e-07
4.635589227e-07
4.623012602e-07
4.701924602e-07
4.525625763e-07
4.189763708e-07
2.397525959e-07
2.3440122e-07
2.005149721e-07
1.921747754e-07
1.841166351e-07
1.024929659e-07
1.035318876e-07
1.016955605e-07
7.433130365e-08
4.603300598e-08
3.922408295e-08
3.919594366e-08
3.905394529e-08
3.803318488e-08
3.634886749e-08
1.258621433e-08
1.23809585e-08
1.581341175e-08
1.514003663e-08
1.404963039e-08
1.340022493e-09
1.173589438e-09
8.09138682e-10
2.548390819e-10
-4.696772167e-10
-5.626694511e-09
-5.663954054e-09
-5.982160388e-09
-6.807858344e-09
-7.295770015e-09
-1.058528849e-08
-1.078957094e-08
-1.116706407e-08
-1.172259768e-08
-1.20146888e-08
-1.0760764e-08
-1.091124293e-08
-1.128824258e-08
-1.148790972e-08
-1.205987238e-08
-7.532500582e-09
-7.817952245e-09
-5.584103301e-09
-5.921688801e-09
-6.404912675e-09
1.223831154e-09
1.119949988e-09
8.78394702e-10
6.255641014e-10
9.956193142e-10
9.300753109e-09
9.140298274e-09
1.254833116e-08
8.912143313e-09
7.615885256e-09
1.559212431e-09
1.615544649e-09
1.94569327e-09
2.929037254e-09
5.696757493e-09
9.200478499e-09
9.300985713e-09
9.339655819e-09
9.964083903e-09
1.948491392e-08
9.461704598e-09
-3.045175061e-10
2.009069687e-10
1.405093095e-09
2.583529515e-09
6.873592522e-09
7.100503264e-09
7.3873404e-09
7.390315186e-09
6.451183043e-09
-1.058654755e-09
-8.961762788e-10
-4.749461296e-10
2.595129088e-09
3.510305265e-09
-2.068229061e-09
-2.231337489e-09
-2.484989881e-09
-2.996773985e-09
-4.148387149e-09
-1.831982963e-09
-2.151355597e-09
-1.943447343e-09
-3.406794284e-09
-5.432216741e-09
-8.597287455e-10
-8.280396908e-10
-7.864491015e-10
-6.607596926e-10
-5.684909256e-10
9.64623406e-10
8.975622799e-10
8.080202466e-10
8.759405664e-10
1.306690264e-09
3.022699316e-09
2.527332697e-09
2.421681763e-09
2.369635523e-09
3.24847306e-09
-1.731515105e-08
-1.668252781e-08
1.819376831e-08
-6.827344952e-09
1.402638433e-09
-1.350457814e-08
-1.345333836e-08
-1.354919017e-08
-1.308020531e-08
-1.267398e-08
-1.580277042e-08
-1.571984075e-08
-1.543820924e-08
-1.499081268e-08
-1.405563528e-08
-1.758306183e-08
-1.749136364e-08
-1.720239473e-08
-1.676678245e-08
-1.587942085e-08
-1.641260005e-08
-1.618989485e-08
-1.571301237e-08
-1.506784004e-08
-1.449752785e-08
-1.534688045e-08
-1.575017042e-08
-1.2014103e-08
-1.303445656e-08
-1.197067772e-08
-2.522023051e-08
-2.488853754e-08
-2.416697704e-08
-2.317065418e-08
-2.191014448e-08
-3.017296941e-08
-2.97701576e-08
-2.888534872e-08
-2.770953577e-08
-2.622003245e-08
-4.622517422e-08
-4.568762896e-08
-4.443408556e-08
-4.247130282e-08
-3.955354343e-08
-1.753890218e-07
-1.756508314e-07
-1.740949823e-07
-1.690230247e-07
-1.563933188e-07
-6.418484321e-08
-6.022378329e-08
-6.447968586e-08
-6.302975974e-08
-6.445759647e-08
-3.028196019e-08
-3.04690663e-08
-3.113171249e-08
-3.343017805e-08
-3.917649352e-08
-4.890861138e-08
-4.870730708e-08
-3.850811019e-08
9.724047797e-09
1.271141913e-07
-7.076875194e-08
-6.404119745e-08
-2.151632067e-08
-4.677613642e-08
-4.285432764e-09
6.584314463e-08
6.655193315e-08
6.64561586e-08
6.051457015e-08
2.408841305e-08
-1.141811313e-07
-7.281238347e-08
3.073075338e-09
5.427536962e-08
-5.454716914e-08
1.32487226e-08
2.673324944e-08
2.783770263e-08
5.790043692e-08
2.039837533e-08
-3.054460011e-07
-3.059843068e-07
-3.042561102e-07
-2.978065168e-07
-2.799594455e-07
-2.739680673e-07
-2.802024871e-07
-2.855647617e-07
-2.810081074e-07
-2.355146368e-07
-1.525250954e-07
-1.569903064e-07
-1.578893367e-07
-1.476387923e-07
-9.153543443e-08
0.0008284733935
-0.0003177982289
-9.330062731e-05
-7.102607229e-06
4.913509649e-05
-0.0001033989866
0.0001201079463
1.450090181e-05
2.143723072e-05
3.437414386e-06
0.0001890880268
-0.0001039238684
-6.848441382e-05
1.987660076e-05
-2.661842945e-05
9.270649352e-06
-6.455236998e-05
-0.0003351978754
-0.0001606344555
0.000979354053
0.0006625985207
0.0002552866359
6.085524354e-05
1.633222021e-05
8.13472944e-06
3.535049874e-06
1.884930093e-06
9.260935715e-07
3.75715612e-07
1.782667626e-07
7.535591247e-08
3.529211337e-08
1.327094838e-08
-1.145795688e-09
-8.604053513e-09
-1.155228782e-08
-1.333930428e-08
-6.679119245e-09
1.678770604e-09
3.040708857e-09
1.222059329e-08
2.294463334e-08
6.662917435e-09
4.162341381e-09
4.206542803e-09
-6.0825812e-09
2.967859505e-09
-5.922587803e-10
1.002334231e-09
2.562136258e-09
-1.168650614e-08
-1.068375501e-08
-1.199907526e-08
-1.390765988e-08
-1.341146723e-08
-1.098555468e-08
-1.92664346e-08
-2.337310404e-08
-3.516074447e-08
-1.360378731e-07
-6.91101778e-08
-4.143576893e-08
-2.144311222e-07
-2.397689632e-09
-9.110156483e-08
8.407214213e-08
-1.337314278e-07
-2.49304859e-07
-2.03821164e-07
-4.288271936e-08
0.009966148348
0.01435256336
-0.006293369166
0.00249565347
-0.00161862094
0.0008168316567
0.0004497814799
-0.01724977557
0.007154164918
0.0005542019856
0.0001904295814
0.001990790106
-0.02252987222
0.02025641807
0.0006907899937
0.0001099164299
0.0006313422733
0.007882754314
0.003947848884
-0.003646751197
-9.7119972e-05
-0.0003529126296
-0.0010876679
-0.008289714358
-0.001770305585
0.0002282354789
0.0009311800364
-0.0006709523471
-0.01230517375
0.00349384237
6.16129029e-05
-5.363931115e-05
-0.001317627877
-0.009852647044
0.005910672921
7.010069309e-05
0.0002747006036
0.003079443771
0.001576671734
-0.002090865641
4.37858076e-05
5.25403037e-05
-0.00108863023
-0.02088974007
-0.001772043952
1.194025781e-05
0.0001584599046
0.0006590436388
-0.01028050109
-0.006534537862
-0.0002163161773
9.57919122e-05
-0.0001279259538
0.01329305872
-0.02884303303
0.0001467943066
-8.438163902e-05
0.000294613783
0.004835743699
0.04523336707
9.482056484e-05
-0.007015002705
-0.0002956198956
-0.001790548398
0.001305650055
0.0001210089461
0.001951251406
0.0002262085623
-2.451665753e-05
-0.0007121831783
-9.62675192e-06
0.002296301403
-5.605625009e-05
-0.0002806086271
0.0230036244
-4.942073503e-05
0.002080364964
-0.0003605158958
-0.001161082283
-0.02163940188
-2.628266085e-05
0.0002474850582
-0.001344612328
-0.006824439183
-0.02497484553
-0.0002484677093
-0.0007877745301
-0.00352672068
-0.01478110371
-0.05952068031
-0.000360670533
-0.001335990677
-0.004614736822
-0.01522521546
-0.06129600472
0.002901775739
0.01855919445
0.1126897311
0.6570033864
3.6328998
0.001587174729
0.006302662219
0.0237973578
0.09156556209
0.3209565804
0.0006051607676
0.001936727662
0.005169033578
0.01296061822
0.03000037503
0.0001481698404
0.0004450582049
0.001047340249
0.002054991576
0.003355166539
3.225697474e-05
8.161407347e-05
0.0001709776556
0.0002962232027
0.0004061942602
9.646261035e-06
1.678034447e-05
2.725037369e-05
4.042224605e-05
4.969497472e-05
4.13591567e-06
4.888196247e-06
5.693112689e-06
6.469220111e-06
6.854843585e-06
2.020228946e-06
2.092615913e-06
2.076971336e-06
2.110235022e-06
1.956101857e-06
9.777905933e-07
9.958321578e-07
9.936665871e-07
8.250515635e-07
5.807405128e-07
3.662047463e-07
3.86720781e-07
3.389615068e-07
4.00595898e-07
2.707098178e-07
1.647871423e-07
2.841406069e-07
1.191263528e-07
1.588696912e-07
1.139739371e-07
8.51528902e-08
8.105016826e-08
6.684248554e-08
7.559116228e-08
5.774728304e-08
3.519904018e-08
3.733890339e-08
1.193360958e-08
1.963060714e-08
2.472629272e-08
1.138196731e-08
1.062863313e-08
8.742371968e-09
3.433016132e-09
-2.750031013e-09
-2.335037371e-09
-2.755140462e-09
-4.35119367e-09
-7.217332744e-09
-1.146903407e-08
-1.195565893e-08
-1.363687969e-08
-1.348844425e-08
-1.50487994e-08
-1.83915438e-08
-1.165685417e-08
-1.873362187e-08
-1.359680925e-08
-2.160591495e-08
-2.8554126e-08
-1.407543296e-08
-2.357708599e-08
-2.488238621e-08
-2.522132699e-08
-1.669262158e-08
-6.806681271e-09
-8.569871005e-09
-2.584519662e-08
-2.239525814e-08
-1.006766662e-08
-5.934342497e-10
-1.150106711e-08
-1.600623122e-08
-6.678556011e-09
4.907382499e-09
2.444791937e-09
-1.977193944e-09
7.910998068e-09
2.476278207e-08
3.660790248e-08
1.540089297e-08
1.662269514e-08
2.897647309e-08
1.639902864e-08
2.902184725e-08
2.353103808e-08
1.099899371e-08
1.867680075e-08
2.439996645e-08
1.790624802e-08
1.0441954e-08
1.440400833e-08
1.513573189e-08
8.136696569e-09
1.079894965e-08
-1.21521645e-09
-8.919992976e-10
1.737216243e-09
6.912931528e-10
7.686233385e-10
-7.741206896e-10
-4.15114608e-09
-2.823224806e-09
1.208817208e-09
-5.031937532e-09
2.529561403e-08
-3.181145733e-09
-1.652322448e-09
1.421194981e-09
-8.466578376e-10
1.769662096e-08
5.789803632e-09
-4.550854464e-09
-4.548709333e-10
-6.184234508e-10
-9.053999818e-10
-1.386839945e-09
-1.931301676e-11
5.826670673e-10
1.036819563e-09
1.286047065e-09
1.739109156e-09
4.092655811e-10
-1.663870924e-08
-9.56038063e-10
-6.913587694e-10
3.767373006e-08
5.561019579e-09
-8.301156855e-09
-4.18556458e-09
-9.231550836e-09
-9.489242643e-09
-1.257733242e-08
-9.865429354e-09
-9.148332883e-09
-1.236023292e-08
-1.153916856e-08
-1.050858608e-08
-9.73183521e-09
-9.27726765e-09
-1.359397209e-08
-1.264327269e-08
-1.176483127e-08
-1.101391082e-08
-5.526997333e-09
-1.546974048e-08
-9.661323073e-09
-8.41224811e-09
-7.927759608e-09
-6.922414311e-10
-7.081420066e-09
-6.790541738e-09
-5.405495618e-09
2.758561993e-09
-1.177478311e-08
-3.880703267e-09
-1.516236808e-08
-1.442684096e-08
-1.188968517e-08
-1.008730226e-08
-1.928579887e-08
-1.654090117e-08
-1.400814076e-08
-1.177652477e-08
-1.003252423e-08
-2.307586221e-08
-1.96284704e-08
-1.608419879e-08
-1.291544935e-08
-1.743180899e-08
-3.226448131e-08
-2.419621754e-08
-2.340704307e-08
-1.180743024e-07
-1.19362684e-07
-1.561510164e-07
-1.552754248e-07
-5.576898405e-08
-5.908481136e-08
-6.407402651e-08
-7.681318892e-08
-7.981493866e-08
-9.463339364e-08
-1.156360856e-07
-1.431241179e-07
-4.403100332e-08
-6.046757013e-08
-9.237051383e-08
-9.226934533e-08
2.287453487e-07
-4.280396602e-07
3.744726724e-07
-5.378610169e-10
-1.002211807e-08
-1.963760899e-09
3.073593575e-08
6.474065826e-08
8.084668821e-08
9.264335013e-08
1.073658994e-07
-1.675739217e-07
-1.383822197e-07
-1.02603562e-07
1.855009531e-08
7.830992618e-08
-1.558372023e-07
5.787626264e-08
-8.389056436e-08
-9.586119557e-08
-4.390445337e-08
-1.817479403e-07
-1.82540059e-07
-1.425556966e-07
-1.700141092e-07
-2.018209923e-07
-2.844795036e-07
-2.397112014e-07
-2.446432383e-07
-2.42533632e-07
-2.394909643e-07
-3.050474041e-07
-3.055903414e-07
-2.529236068e-07
-1.923011846e-07
-1.273963241e-07
-1.766375759e-07
-4.333382629e-07
-1.711586679e-07
-2.433554906e-07
-9.563096856e-08
-5.514927048e-06
9.31622428e-06
8.786252262e-07
7.52575299e-06
7.587216811e-06
-7.708660438e-06
-7.658299121e-06
-7.721811854e-06
7.585056206e-06
7.531920781e-06
7.52627581e-06
7.526266717e-06
7.526234932e-06
7.536221683e-06
4.82913192e-06
2.133093878e-06
9.364198699e-07
4.081623638e-07
1.764982708e-07
7.566387864e-08
3.213774611e-08
1.351741426e-08
5.627611799e-09
2.318091617e-09
9.44397717e-10
3.804114138e-10
1.514586648e-10
5.958717916e-11
2.315856791e-11
8.889072734e-12
3.368794753e-12
1.260240888e-12
4.652431875e-13
1.694488214e-13
6.087114334e-14
2.156148393e-14
7.528663149e-15
2.590628769e-15
8.782444533e-16
2.932388613e-16
9.640347004e-17
3.119771448e-17
9.935643936e-18
3.113038186e-18
9.593577306e-19
2.907192567e-19
8.660858424e-20
2.535970641e-20
7.296753881e-21
2.062659147e-21
5.727314922e-22
1.561768166e-22
4.1815908e-23
1.099104656e-23
2.835095732e-24
7.167127857e-25
1.761452248e-25
4.02401937e-26
6.310626263e-27
3.769592103e-28
7.100923262e-05
6.446137391e-05
4.38419037e-06
7.548551225e-06
-7.759361141e-06
7.607275608e-06
7.576072597e-06
7.57735807e-06
7.594180602e-06
-7.825332341e-06
7.590892527e-06
7.525237676e-06
7.525240921e-06
7.525177367e-06
7.534268307e-06
7.543391365e-06
4.836024747e-06
2.15453382e-06
9.490547344e-07
4.133606774e-07
1.780110586e-07
7.578745543e-08
3.189469656e-08
1.326606034e-08
5.452504155e-09
2.2141467e-09
8.881706728e-10
3.51873438e-10
1.376554964e-10
5.316561829e-11
2.026784196e-11
7.624794649e-12
2.830042064e-12
1.03608943e-12
3.740523222e-13
1.331329091e-13
4.670251919e-14
1.614277884e-14
5.496404575e-15
1.842968757e-15
6.083570184e-16
1.976555738e-16
6.31953651e-17
1.987607905e-17
6.147837562e-18
1.86971998e-18
5.589715975e-19
1.642345338e-19
4.741440504e-20
1.344744177e-20
3.746005007e-21
1.024743346e-21
2.75232648e-22
7.256640503e-23
1.877404457e-23
4.757714145e-24
1.17036688e-24
2.631873776e-25
4.084268902e-26
2.573721543e-27
6.138877436e-05
1.354181521e-05
-4.038664457e-06
7.527418084e-06
7.566944417e-06
7.571320083e-06
-7.742804789e-06
-7.703185439e-06
-7.764624206e-06
7.70972888e-06
-7.832881544e-06
7.596426027e-06
7.525264879e-06
7.525262236e-06
7.525221909e-06
7.526115761e-06
7.538524499e-06
6.736281791e-06
3.043083016e-06
1.354192209e-06
5.9406777e-07
2.570485854e-07
1.097438709e-07
4.62416914e-08
1.923232808e-08
7.895807406e-09
3.199806809e-09
1.279939745e-09
5.053052975e-10
1.968626753e-10
7.567515334e-11
2.869781234e-11
1.073411158e-11
3.959256758e-12
1.439769649e-12
5.160595605e-13
1.822741106e-13
6.342428857e-14
2.173580676e-14
7.334434284e-15
2.436155006e-15
7.962853682e-16
2.560871519e-16
8.101674725e-17
2.520339625e-17
7.707704567e-18
2.316882334e-18
6.843931534e-19
1.986264586e-19
5.662579416e-20
1.585464285e-20
4.358978549e-21
1.176579938e-21
3.117256426e-22
8.102273616e-23
2.060413879e-23
5.05866579e-24
1.111125113e-24
1.661502646e-25
1.015124359e-26
-0.0001672509309
-5.194279637e-06
3.161973538e-06
6.846772511e-06
7.525444707e-06
7.524659011e-06
7.571521292e-06
7.645913268e-06
-7.718140595e-06
-7.779369751e-06
7.724947036e-06
-7.8447009e-06
7.60231648e-06
7.525305728e-06
7.525293865e-06
7.526228086e-06
7.526224866e-06
7.528547874e-06
7.590135097e-06
3.533761051e-06
1.580069798e-06
6.956059755e-07
3.016988989e-07
1.28977948e-07
5.436752794e-08
2.260208521e-08
9.268388693e-09
3.7491768e-09
1.496049521e-09
5.88863712e-10
2.286148249e-10
8.75308543e-11
3.304594891e-11
1.229977938e-11
4.512431312e-12
1.631406743e-12
5.810988173e-13
2.038761603e-13
7.043690779e-14
2.395729873e-14
8.019967483e-15
2.641653688e-15
8.558901958e-16
2.727466839e-16
8.547245576e-17
2.632956824e-17
7.970545049e-18
2.370808578e-18
6.927854439e-19
1.988414572e-19
5.604559403e-20
1.551061065e-20
4.21397126e-21
1.123611336e-21
2.937898454e-22
7.502878274e-23
1.833811287e-23
3.92518965e-24
5.626242193e-25
3.31917704e-26
7.831751152e-05
2.302216731e-05
7.83255181e-06
-3.885296929e-06
-7.719272503e-06
7.59503395e-06
-7.730072904e-06
-7.694648919e-06
-7.751218096e-06
7.74562781e-06
-7.870277489e-06
7.741173943e-06
-7.856610796e-06
7.602367584e-06
7.525426273e-06
7.526470703e-06
7.526394072e-06
7.525188503e-06
7.525164318e-06
7.540782964e-06
3.631066319e-06
1.630045238e-06
7.195237119e-07
3.125765612e-07
1.337244152e-07
5.636501947e-08
2.341509954e-08
9.588802546e-09
3.87141554e-09
1.541113455e-09
6.048589801e-10
2.340459061e-10
8.92748511e-11
3.356420165e-11
1.243561812e-11
4.53958632e-12
1.632406589e-12
5.780988517e-13
2.015724631e-13
6.918421921e-14
2.336823916e-14
7.765637638e-15
2.538191182e-15
8.157460176e-16
2.577711716e-16
8.007487306e-17
2.444515117e-17
7.331329675e-18
2.159710268e-18
6.2485671e-19
1.775264292e-19
4.951804735e-20
1.355810131e-20
3.642605215e-21
9.588508104e-22
2.458495349e-22
5.975200881e-23
1.246940457e-23
1.715005306e-24
9.800595817e-26
0.002177396195
0.0002021798648
2.216032608e-05
4.816161324e-06
-5.889263204e-06
-7.688166501e-06
-7.655881772e-06
-7.744804478e-06
7.640575297e-06
7.634721989e-06
-7.847298066e-06
7.719478869e-06
-7.835531828e-06
7.616437385e-06
7.525498544e-06
7.52672886e-06
7.526566079e-06
7.525258152e-06
7.525174455e-06
7.526208966e-06
7.437637876e-06
3.422610353e-06
1.543243065e-06
6.830983749e-07
2.972063831e-07
1.272176511e-07
5.360795043e-08
2.224853951e-08
9.09703016e-09
3.665293585e-09
1.455369713e-09
5.695140306e-10
2.196270186e-10
8.346003146e-11
3.124823655e-11
1.152535911e-11
4.186790858e-12
1.497657709e-12
5.274101152e-13
1.828039782e-13
6.234783554e-14
2.091946018e-14
6.903370157e-15
2.239882768e-15
7.143963995e-16
2.239515779e-16
6.899521104e-17
2.088459471e-17
6.209113277e-18
1.812720896e-18
5.196204602e-19
1.462325899e-19
4.039198233e-20
1.094427813e-20
2.902552989e-21
7.46868158e-22
1.803170143e-22
3.673677062e-23
4.863941247e-24
2.704250891e-25
0.002324474449
0.0003975548819
6.771686339e-05
9.768856495e-06
5.164767674e-08
-7.690154073e-06
7.579281074e-06
7.567245755e-06
7.628495584e-06
-7.882491637e-06
7.762114261e-06
-7.887076458e-06
7.758606743e-06
-7.873453422e-06
7.60877882e-06
7.526993403e-06
7.526786127e-06
7.525350438e-06
7.525247099e-06
7.525156894e-06
7.530162287e-06
6.549473356e-06
3.032246775e-06
1.372857014e-06
6.092309057e-07
2.654166717e-07
1.136465593e-07
4.786530683e-08
1.984160444e-08
8.09846013e-09
3.255482358e-09
1.289092142e-09
5.028483136e-10
1.932283456e-10
7.314011437e-11
2.726719315e-11
1.001053959e-11
3.618479192e-12
1.287526245e-12
4.508702158e-13
1.553508536e-13
5.265508333e-14
1.755193893e-14
5.752571857e-15
1.85327115e-15
5.867534667e-16
1.825327824e-16
5.57896839e-17
1.675031421e-17
4.938877786e-18
1.429706383e-18
4.062515923e-19
1.132847335e-19
3.097322091e-20
8.278017769e-21
2.137007152e-21
5.122723588e-22
1.020465706e-22
1.30541078e-23
7.090564877e-25
-0.000808023315
0.0001226584754
6.037201699e-05
1.429286006e-05
-1.761236275e-05
-7.725000733e-06
7.585380332e-06
-7.716816043e-06
-7.781602406e-06
7.647724544e-06
7.642360568e-06
-7.860027117e-06
7.734301295e-06
-7.85120552e-06
7.623809197e-06
7.52720618e-06
7.527030414e-06
7.525468225e-06
7.525346521e-06
7.525239427e-06
7.525135307e-06
7.535679188e-06
5.530585906e-06
2.571133256e-06
1.167375611e-06
5.189042106e-07
2.262131632e-07
9.684046063e-08
4.074841979e-08
1.686465576e-08
6.868633982e-09
2.753817901e-09
1.087083389e-09
4.22570717e-10
1.617538255e-10
6.096894642e-11
2.26265676e-11
8.266527291e-12
2.972670973e-12
1.051974423e-12
3.662747611e-13
1.254457461e-13
4.225240984e-14
1.399241665e-14
4.554917254e-15
1.45719533e-15
4.580410445e-16
1.414352114e-16
4.28970078e-17
1.277814511e-17
3.737624341e-18
1.073159403e-18
3.023014021e-19
8.343918118e-20
2.246931189e-20
5.815664859e-21
1.383871809e-21
2.699201068e-22
3.346053875e-23
1.780916901e-24
-0.001430726544
0.0006259585337
0.0002956144534
5.078887567e-05
4.112989204e-06
-0.0001505148795
7.86362855e-06
-7.673108266e-06
-7.656983583e-06
-7.697072587e-06
-7.808369502e-06
7.78374588e-06
-7.899906419e-06
7.772188711e-06
-7.885770857e-06
7.626472229e-06
7.527252358e-06
7.525579254e-06
7.525453027e-06
7.525336512e-06
7.525229929e-06
7.525115114e-06
7.541306234e-06
4.551353277e-06
2.118325241e-06
9.623307222e-07
4.277348914e-07
1.863417876e-07
7.967065695e-08
3.346285548e-08
1.381721306e-08
5.611803658e-09
2.24270326e-09
8.821337873e-10
3.415462337e-10
1.301780166e-10
4.884144427e-11
1.803710744e-11
6.555692022e-12
2.344632922e-12
8.250053032e-13
2.855466604e-13
9.719483248e-14
3.252821426e-14
1.070123494e-14
3.459959282e-15
1.099217591e-15
3.430665528e-16
1.051645777e-16
3.165858789e-17
9.358233965e-18
2.715494287e-18
7.729793196e-19
2.154558222e-19
5.845393824e-20
1.516027812e-20
3.580571601e-21
6.847684825e-22
8.25001235e-23
4.315098953e-24
0.001905526118
0.001703940246
0.0006696545775
0.0001468289137
2.231509669e-05
2.489837919e-06
-4.074363926e-06
-7.692265048e-06
7.590049237e-06
7.567794567e-06
7.680695621e-06
-7.796420527e-06
-7.774087672e-06
7.749153121e-06
-7.761442028e-06
-7.695108023e-06
7.527027915e-06
7.525680262e-06
7.525554418e-06
7.525432896e-06
7.525317244e-06
7.525211857e-06
7.525413183e-06
7.596511679e-06
3.693052579e-06
1.715088691e-06
7.774370763e-07
3.447505536e-07
1.498086361e-07
6.38713943e-08
2.674392865e-08
1.100535708e-08
4.453219823e-09
1.772557593e-09
6.942134671e-10
2.675571324e-10
1.014839248e-10
3.788180646e-11
1.391514098e-11
5.029439427e-12
1.788394443e-12
6.255243341e-13
2.151689818e-13
7.277507198e-14
2.41971654e-14
7.907451758e-15
2.539293453e-15
8.011392589e-16
2.482784991e-16
7.556431223e-17
2.258146973e-17
6.62349892e-18
1.905373412e-18
5.36232909e-19
1.465047757e-19
3.805219968e-20
8.919025493e-21
1.674371633e-21
1.965106284e-22
1.012426521e-23
-0.000299690698
0.01983728025
0.0002761899285
0.000273762677
5.528731123e-05
8.749130998e-06
-0.000114178596
-7.74791695e-06
7.598602944e-06
-7.735348616e-06
-7.791939981e-06
7.669414963e-06
7.693093253e-06
-7.922912675e-06
7.793087179e-06
-7.763014738e-06
7.537106501e-06
7.525715606e-06
7.525653924e-06
7.525529701e-06
7.525407871e-06
7.52529344e-06
7.525188908e-06
7.530410705e-06
6.254116673e-06
2.968596865e-06
1.371917263e-06
6.19029917e-07
2.732932183e-07
1.182405102e-07
5.01920846e-08
2.092286285e-08
8.570683344e-09
3.45172097e-09
1.36721959e-09
5.327562969e-10
2.042532981e-10
7.705244597e-11
2.86007896e-11
1.044521971e-11
3.752839732e-12
1.326311715e-12
4.610030595e-13
1.575640125e-13
5.294484963e-14
1.748721298e-14
5.67629364e-15
1.810396312e-15
5.672360262e-16
1.745618972e-16
5.274966721e-17
1.564397899e-17
4.548053478e-18
1.291895075e-18
3.552304495e-19
9.234476756e-20
2.147706803e-20
3.960837921e-21
4.534670349e-22
2.304164803e-23
-0.01473330764
-0.005184394365
-0.001233999002
0.0007258660582
0.0001568993277
2.446438446e-05
2.077276502e-06
-4.981927523e-06
7.580014333e-06
-7.695307047e-06
-7.659176032e-06
-7.700232661e-06
-7.82125139e-06
7.812194536e-06
-7.920751138e-06
7.679690845e-06
-7.79661715e-06
7.631014106e-06
7.52564045e-06
7.525628311e-06
7.525502525e-06
7.525380415e-06
7.525267577e-06
7.525153463e-06
7.538355072e-06
5.001582155e-06
2.358284433e-06
1.083135714e-06
4.858725664e-07
2.133007979e-07
9.177887831e-08
3.874852718e-08
1.606539893e-08
6.545215876e-09
2.621530859e-09
1.032594745e-09
4.000798358e-10
1.524976895e-10
5.718794667e-11
2.109928468e-11
7.6582218e-12
2.734275512e-12
9.601833927e-13
3.315868958e-13
1.125897785e-13
3.758221054e-14
1.233016429e-14
3.975376823e-15
1.259294717e-15
3.918557249e-16
1.19737731e-16
3.590356156e-17
1.05475999e-17
3.023047745e-18
8.361157406e-19
2.174229658e-19
5.017292603e-20
9.097551564e-21
1.017594508e-21
5.107233034e-23
-0.003802469059
-0.003077941369
-0.0007881447585
0.003021615389
0.0006318519055
7.917606751e-05
7.028023464e-06
-2.039657297e-05
-7.930964394e-06
-7.714298375e-06
7.627495923e-06
7.573055574e-06
7.698766571e-06
-7.822539598e-06
-7.782377124e-06
7.654359835e-06
-7.663078834e-06
-7.796700171e-06
7.620581578e-06
7.525679791e-06
7.525602084e-06
7.525473962e-06
7.525351764e-06
7.525240846e-06
7.525128167e-06
7.545792205e-06
3.926976296e-06
1.839873668e-06
8.399891644e-07
3.746284801e-07
1.635314179e-07
6.996752309e-08
2.937317826e-08
1.210914936e-08
4.905093423e-09
1.953201193e-09
7.648090259e-10
2.945508009e-10
1.115900582e-10
4.158858651e-11
1.524773198e-11
5.499161869e-12
1.950782024e-12
6.80596859e-13
2.334956024e-13
7.876025594e-14
2.611575903e-14
8.511151329e-15
2.725712848e-15
8.575911934e-16
2.649644419e-16
8.031771283e-17
2.383761545e-17
6.890874724e-18
1.915919529e-18
4.98071736e-19
1.140232734e-19
2.034155653e-20
2.225979766e-21
1.105109474e-22
-0.0008418944235
-0.002065895991
-0.02095059272
0.007236830812
0.001732804564
0.0002108199764
2.14362288e-05
1.777186957e-05
-7.096181362e-06
7.594446985e-06
7.604671856e-06
-7.778143946e-06
-7.812833529e-06
7.699452294e-06
7.706556462e-06
-7.828199577e-06
7.690878011e-06
-7.87720053e-06
7.637012035e-06
7.525708455e-06
7.525703049e-06
7.525569874e-06
7.525440278e-06
7.525320182e-06
7.525212964e-06
7.530333623e-06
6.268220289e-06
3.006401099e-06
1.401516602e-06
6.367975386e-07
2.826544591e-07
1.227845741e-07
5.227128328e-08
2.183078175e-08
8.951785798e-09
3.606191192e-09
1.427857679e-09
5.558566609e-10
2.128052657e-10
8.013203762e-11
2.968012082e-11
1.08135024e-11
3.875189068e-12
1.365881654e-12
4.734583693e-13
1.613778637e-13
5.407994693e-14
1.781503472e-14
5.767786803e-15
1.834800569e-15
5.731365412e-16
1.75602636e-16
5.263738956e-17
1.533988599e-17
4.284892866e-18
1.112950507e-18
2.526892126e-19
4.435394071e-20
4.748070657e-21
2.331803084e-22
0.001444481185
-0.004055039897
0.004036727986
0.01623209388
0.004598530879
0.0005601745166