/*--------------------------------*- C++ -*----------------------------------*\
  =========                 |
  \\      /  F ield         | OpenFOAM: The Open Source CFD Toolbox
   \\    /   O peration     | Website:  https://openfoam.org
    \\  /    A nd           | Version:  10
     \\/     M anipulation  |
\*---------------------------------------------------------------------------*/
FoamFile
{
    format      ascii;
    class       volScalarField;
    location    "0.0250188088";
    object      ddt0(rho,CH3OH);
}
// * * * * * * * * * * * * * * * * * * * * * * * * * * * * * * * * * * * * * //

dimensions      [1 -3 -1 0 0 0 0];

internalField   nonuniform List<scalar> 
5170
(
2.836329504e-08
2.841387777e-08
2.845448912e-08
2.850526604e-08
8.27315913e-12
2.827437166e-08
2.835263236e-08
2.84169433e-08
2.869978047e-08
2.875664145e-08
2.792886328e-08
2.800555237e-08
2.807245577e-08
2.815486616e-08
2.886016596e-08
2.825778939e-08
2.833440018e-08
2.840210015e-08
2.840885085e-08
2.857847991e-08
2.875540309e-08
2.883676471e-08
2.890409575e-08
2.89053186e-08
2.89616722e-08
2.924466215e-08
2.934420282e-08
2.942419896e-08
2.940380311e-08
2.950299305e-08
2.962432734e-08
2.973251961e-08
2.983779226e-08
2.982962092e-08
2.999752005e-08
2.98837697e-08
2.999673289e-08
3.010051136e-08
3.015978368e-08
3.03699129e-08
3.001260869e-08
3.013874316e-08
3.02544801e-08
3.033369237e-08
3.058699974e-08
3.003066075e-08
3.016879271e-08
3.032955189e-08
3.037463702e-08
3.06546711e-08
2.999572396e-08
3.012673572e-08
3.02733292e-08
3.035521319e-08
3.064427623e-08
2.99532847e-08
3.007394519e-08
3.015641413e-08
3.030487518e-08
3.061064521e-08
2.988724286e-08
3.001518572e-08
3.008732034e-08
3.023772206e-08
3.057180451e-08
2.98462905e-08
2.997859656e-08
3.007875377e-08
3.019473814e-08
3.056760824e-08
2.98478044e-08
2.997602719e-08
3.009930987e-08
3.020587978e-08
3.062063432e-08
2.99074023e-08
3.002658299e-08
3.014639656e-08
3.02791127e-08
3.072373581e-08
3.00193582e-08
3.012396189e-08
3.022876938e-08
3.041058641e-08
3.087884284e-08
3.016075544e-08
3.026552e-08
3.034631069e-08
3.055613322e-08
3.106564123e-08
3.032013111e-08
3.042265108e-08
3.048606188e-08
3.081915872e-08
3.163095435e-08
3.056318944e-08
3.175325399e-08
3.973011216e-08
7.433864933e-08
-4.650145001e-08
-1.444723259e-16
2.133550042e-17
1.897312544e-17
2.002469434e-17
1.268920211e-17
-6.261022e-17
9.145405015e-17
-1.007345865e-16
-3.87199285e-17
1.136151695e-16
-2.945163845e-17
3.096247658e-17
-7.502430095e-17
7.308673711e-17
-3.489676066e-18
-1.241578163e-16
-1.070164135e-16
4.478161241e-17
-3.411764445e-17
8.325719083e-15
-6.974184387e-13
-8.604751958e-15
-2.900321574e-15
6.367423585e-15
5.53380455e-13
5.971372569e-12
7.244115591e-12
-9.63891917e-15
1.814640918e-11
-1.19003132e-09
-1.220047813e-09
1.264684917e-09
-4.063994699e-10
-3.220677554e-10
1.656558477e-08
-4.760464919e-09
-1.301535811e-09
1.075103465e-09
2.707956247e-08
-6.705993849e-08
-4.63971727e-08
4.416162823e-08
4.472894077e-08
4.413269749e-08
-5.23772932e-08
7.507359863e-08
-4.196421229e-08
-3.981629176e-08
-9.260979415e-08
-5.979585014e-09
-8.511562904e-09
-3.571553243e-08
2.287887984e-08
1.179813322e-09
7.968992511e-09
-3.894380023e-10
-3.199791629e-08
8.481730948e-08
1.038980816e-08
-2.179773641e-08
-3.67357634e-08
-6.175219048e-09
4.760541515e-09
-5.592442816e-09
-3.307155482e-08
-2.309179458e-08
3.110822577e-09
-2.368339035e-10
-1.881371225e-08
-4.000899834e-08
-4.067423434e-08
-2.162696746e-08
-1.85662744e-08
-3.566135087e-08
-8.5729785e-09
-2.462211364e-08
-3.719350475e-08
-3.341552554e-08
-4.719186127e-08
-2.247172942e-08
-7.146479128e-09
-4.665965104e-08
-4.581860482e-08
2.836196323e-10
2.839429215e-08
-2.096191621e-08
-2.815675512e-09
-3.436168855e-09
-2.025000397e-08
1.784911706e-07
2.026150757e-08
-2.649633817e-08
-1.901237092e-08
1.639615052e-08
-1.895865068e-07
-2.056944595e-06
-1.47794934e-07
-1.893812472e-07
1.573258448e-08
-4.487679318e-08
3.778331961e-08
7.308456153e-08
6.556905257e-07
-7.703302998e-06
-0.0006909330748
2.241017667e-08
-1.290082333e-08
1.135499349e-06
2.989973885e-05
-2.268685927e-05
2.455705833e-07
1.715878238e-06
8.171241355e-07
6.367357215e-05
0.000121730522
2.3815136e-07
1.760580922e-06
1.74433673e-05
6.808331776e-05
0.0001743611114
-5.062344267e-07
-2.6125291e-06
-3.723984459e-06
4.957711539e-05
0.0001072248021
-3.910248454e-07
-3.969515653e-06
5.502346471e-07
5.51158454e-05
6.339816198e-05
1.565159253e-06
1.06504026e-05
2.523112164e-05
4.96686052e-05
2.823859571e-05
4.374182484e-06
1.228151784e-05
5.588931717e-05
2.983285987e-05
2.346695302e-05
2.709177576e-06
1.740988844e-05
3.001162315e-05
3.200061091e-05
2.455003446e-05
-1.021159315e-05
-2.164101267e-05
-2.945041685e-05
-2.11754088e-05
-2.560565433e-05
-3.643177811e-05
-6.336606218e-05
-5.421311431e-05
-5.453039402e-05
-6.17430387e-05
-0.0001473857847
-0.0001169137119
-9.588594422e-05
-5.966966526e-05
-1.903270915e-05
-7.243830861e-05
-6.762314049e-05
-6.117393474e-05
-4.542712723e-05
-1.875313932e-05
-2.697726322e-06
-2.484126281e-05
-5.183281986e-06
6.115427537e-06
-6.058542935e-06
2.537357907e-06
1.267707502e-05
-3.971501297e-06
-1.410898001e-05
-3.6378553e-05
5.384791182e-05
2.603486437e-05
-6.713179566e-06
-3.345713419e-05
-6.934511032e-05
-2.715024885e-05
-3.180207712e-05
-4.213408838e-05
-6.752392793e-05
4.928499161e-05
-0.0001391448407
-0.0001447647406
-8.364198969e-05
-0.0002463446048
-0.0003139601452
-0.0005125467925
-0.0007097139405
-0.000792703038
-0.001222859528
-0.001441344871
-0.001220572231
-0.001409439938
-0.001749513632
-0.002292799968
-0.003039752835
-0.002348638471
-0.002500350471
-0.002831969577
-0.003346425683
-0.004049973784
-0.002716121369
-0.002716328963
-0.002771010491
-0.002871975718
-0.003065751772
-0.001492938015
-0.001441293261
-0.001291451633
-0.00108156329
-0.0008269446715
0.0001743301295
0.0002493998927
0.0004836000762
0.0007140014408
0.001092749766
0.00144463782
0.001487898245
0.001613055086
0.001805053973
0.002002563844
0.001918980471
0.001939267979
0.00199026671
0.002084163598
0.002169068511
0.001824946773
0.001827406367
0.001847166244
0.001875377072
0.001876797439
0.001431488594
0.001448012844
0.001437586707
0.001436254725
0.001430030767
0.0009346461062
0.0009416252494
0.0009266207961
0.0009149619508
0.0008999575137
0.0004146599064
0.0004061752627
0.0003986932803
0.0003861633231
0.0003624319268
-9.165106556e-05
-8.850505721e-05
-9.820218217e-05
-0.0001045077064
-0.0001235199359
-0.0005106287268
-0.0005120046689
-0.0005124158769
-0.0005187571376
-0.0005129527106
-0.0008219401009
-0.0008134428263
-0.0008124636014
-0.0008137190336
-0.0008017355631
-0.0009805511548
-0.0009766124551
-0.0009758033593
-0.0009679435549
-0.0009513719826
-0.001004660635
-0.001001358661
-0.0009957479261
-0.0009869708066
-0.0009766558647
-0.0009178804068
-0.00091178674
-0.0009049256655
-0.0009012088823
-0.0008826409741
-0.0007566217367
-0.0007562522109
-0.0007498820679
-0.0007431521101
-0.000731639066
-0.000574588872
-0.0005751862116
-0.0005688670582
-0.0005656600101
-0.000551692069
-0.0004087922716
-0.0003990498667
-0.0003976600744
-0.0003962640237
-0.0003920033092
-0.0002543605834
-0.0002581754153
-0.0002572122351
-0.0002502082191
-0.0002514257245
-0.00014709074
-0.0001483310307
-0.000146423468
-0.0001442533287
-0.0001420917943
-7.223890415e-05
-7.059762117e-05
-6.933770405e-05
-6.991326899e-05
-6.462485891e-05
-1.819721343e-05
-2.144512071e-05
-2.005578336e-05
-1.964592463e-05
-1.494055423e-05
1.089635077e-05
1.03472963e-05
1.081997126e-05
1.060041979e-05
1.532287962e-05
2.98309264e-05
2.775427134e-05
2.82590946e-05
2.892207103e-05
2.991197572e-05
3.752513072e-05
3.787278939e-05
3.78825465e-05
3.79040442e-05
3.713903814e-05
4.260912258e-05
4.170820515e-05
4.180725972e-05
4.19680726e-05
4.199037946e-05
4.342951406e-05
4.260958958e-05
4.252932808e-05
4.279435699e-05
4.410940898e-05
4.224971918e-05
4.130418882e-05
4.149520013e-05
4.136223681e-05
4.368206573e-05
3.932452216e-05
3.892988442e-05
3.886031912e-05
3.92900442e-05
3.953397471e-05
3.543716184e-05
3.587876832e-05
3.566033325e-05
3.558439808e-05
3.571429264e-05
3.159338814e-05
3.200517664e-05
3.222260985e-05
3.192983362e-05
3.021232619e-05
2.952532659e-05
2.802317423e-05
2.780550779e-05
2.883458494e-05
2.706045698e-05
2.461220006e-05
2.50433593e-05
2.491630094e-05
2.476015821e-05
2.609071365e-05
2.295194139e-05
2.156782577e-05
2.241977692e-05
2.182596925e-05
2.213798223e-05
2.051224613e-05
1.946005725e-05
1.975081952e-05
1.9812595e-05
1.983148308e-05
1.742250358e-05
1.786661154e-05
1.772885364e-05
1.802855108e-05
1.60145288e-05
1.556280267e-05
1.584944967e-05
1.578341559e-05
1.595931561e-05
1.424364832e-05
1.343870759e-05
1.361213099e-05
1.36597566e-05
1.367251777e-05
1.227561664e-05
1.119532619e-05
1.105692531e-05
1.111266071e-05
1.126808002e-05
1.0188176e-05
8.656080494e-06
8.649073481e-06
8.692903397e-06
8.907267448e-06
7.974234728e-06
6.505443584e-06
6.680779777e-06
6.884013523e-06
6.962996671e-06
6.096776469e-06
5.67728494e-06
5.793166392e-06
5.949537739e-06
6.046459731e-06
4.618119554e-06
6.301038652e-06
6.136167336e-06
6.183232495e-06
6.51552726e-06
5.290174383e-06
7.540446075e-06
7.820548145e-06
7.593486988e-06
7.831812494e-06
7.583104455e-06
9.767544346e-06
9.558950289e-06
9.635687239e-06
9.66921455e-06
9.525641127e-06
1.098629779e-05
1.100236232e-05
1.102672852e-05
1.094770959e-05
1.081430824e-05
1.12488887e-05
1.112594549e-05
1.118495918e-05
1.112375104e-05
1.110909984e-05
9.841160374e-06
9.827956881e-06
9.885690689e-06
9.775090176e-06
9.831963678e-06
7.897601261e-06
7.834960407e-06
7.851112064e-06
7.838011175e-06
7.896707335e-06
0.005428698756
-0.0007448828768
-0.0002204347856
-0.0001140642377
0.0001247298936
1.169743251e-05
1.291521736e-05
3.358397111e-05
1.689266612e-05
-1.048205078e-05
-6.776001565e-05
2.515689157e-05
-5.546848396e-05
-4.598030639e-05
-1.489953732e-05
2.787854711e-05
-0.0001460088676
-0.0002795462158
-0.001587989956
-0.003660560473
-0.004705221222
-0.00326596714
-0.0006064865738
0.00130239706
0.002286373531
0.002256483455
0.001953271655
0.001409527048
0.0008693696286
0.0003664532314
-0.0001091688876
-0.0005504623631
-0.0008226917179
-0.00097728001
-0.000964507719
-0.0008883865517
-0.0007301450659
-0.0005668026296
-0.0003702247865
-0.000240044476
-0.0001426809623
-7.620618477e-05
-3.056487791e-05
-1.007050735e-06
2.59161702e-05
4.260241338e-05
4.343367912e-05
3.870678699e-05
3.442829727e-05
3.697420099e-05
3.575744521e-05
3.873197066e-05
3.206438179e-05
2.039766097e-05
2.210293513e-05
1.902114157e-05
2.35372501e-05
2.097566571e-05
1.821105688e-05
1.444504925e-05
1.156933865e-05
9.623210479e-06
1.118056383e-05
1.006702857e-05
8.391341111e-06
1.005293713e-05
1.156767079e-05
1.102131555e-05
9.692461651e-06
7.576712253e-06
-0.0008719487409
-8.774280126e-06
-4.215394439e-07
-2.89959067e-08
1.68687875e-08
-4.45492657e-05
8.418260141e-05
-1.360327408e-05
2.693832865e-07
-4.218197851e-07
4.049968817e-05
4.520620672e-05
8.436629163e-05
9.010924642e-06
-6.073287891e-07
7.705265482e-05
0.003837365236
-5.192232477e-05
-5.064374197e-07
-6.381839073e-08
7.908671006e-05
-8.831705682e-05
-0.0004152066982
-2.876001061e-05
-4.988322224e-07
4.663535749e-05
-0.0008715363759
-3.095119681e-05
-1.239571892e-05
6.997405674e-07
-4.086247442e-05
-0.0005248032319
-0.0004990055184
-3.755503202e-05
-7.067799342e-06
2.334684001e-05
-0.0001560007265
-0.002140703258
-6.067548247e-05
3.57721899e-06
-1.307708355e-05
-1.447455405e-05
-0.0001737217213
-0.001146417181
-7.36803978e-05
2.653980611e-09
3.792186578e-05
-0.0007470993387
0.0009550713146
5.651702749e-05
6.390651049e-05
1.509932481e-05
9.199862298e-05
-0.0004214177984
3.437343647e-05
-1.967627054e-05
6.625821212e-06
3.086167261e-05
-0.0008128454112
-0.000136464249
-3.858910426e-05
0.0004771084628
2.727120529e-05
-3.297475022e-05
8.89472979e-06
-6.221174438e-05
-0.0002014744999
-4.355129648e-05
-6.057044414e-05
-3.768531366e-05
-4.872477356e-05
-0.0002093450941
-5.383081029e-05
-7.408187956e-05
-0.000903762227
-1.502736683e-05
-0.0002183570441
-0.0001129309547
-0.0001418441058
0.00107821742
-0.000178470457
-0.0002008773844
-0.0001538646972
-6.373391124e-05
-0.0001536904355
-0.0003891403152
-0.0003522832591
-0.0001508164883
0.0001656346289
0.0007003331122
-0.001707122242
-0.001721390965
-0.001209522428
-0.0002299009453
0.001953272268
-0.004542084097
-0.006754640251
-0.01138594819
-0.02027883979
-0.02055014481
-0.005656028723
-0.007422788322
-0.009306923311
-0.01150372573
-0.01258849018
-0.003731689883
-0.004210909598
-0.003812265734
-0.001259669262
0.004534502399
-0.0005100809652
6.960386832e-05
0.001238261465
0.003190479472
0.005715953331
0.001715125858
0.002430188873
0.00327119706
0.004106819834
0.004734229183
0.002441570319
0.002860889631
0.003229970538
0.003477741632
0.003536501643
0.002357444042
0.002509881473
0.002596151405
0.002592972385
0.002484724222
0.001948331014
0.001981724272
0.001943364247
0.001860732988
0.001716097474
0.001429577243
0.001403799743
0.001335396531
0.001228757722
0.001091818192
0.0008810489945
0.0008416238953
0.0007709362152
0.00067552654
0.000561965923
0.0003501966187
0.0003188652264
0.0002638851018
0.0001923307205
0.0001111662288
-0.0001250690076
-0.0001402961089
-0.0001728619218
-0.0002157069304
-0.0002623287538
-0.0005112486851
-0.0005127619671
-0.0005218743435
-0.0005354905393
-0.0005504710823
-0.0007884943418
-0.0007741065788
-0.0007630504259
-0.0007521614201
-0.0007407864777
-0.0009321912393
-0.0009101666928
-0.0008834753347
-0.0008571121055
-0.000825674053
-0.00095109345
-0.0009222151477
-0.000890490275
-0.0008539242312
-0.0008136914135
-0.0008634782535
-0.0008382007907
-0.0008050460838
-0.0007682180838
-0.0007256619344
-0.0007152739327
-0.0006932239093
-0.0006655896779
-0.0006310666891
-0.000593988026
-0.0005429477708
-0.0005277187603
-0.0005052423502
-0.0004782777791
-0.0004472308036
-0.0003822608589
-0.000369973792
-0.0003529304424
-0.0003336088313
-0.0003097726179
-0.0002445853811
-0.0002367589607
-0.0002254900558
-0.0002115375634
-0.0001953557275
-0.0001395028102
-0.0001347261925
-0.0001282066326
-0.0001182235259
-0.0001079744825
-6.517595743e-05
-6.315240658e-05
-5.888740711e-05
-5.275335296e-05
-4.616486708e-05
-1.656058331e-05
-1.605984514e-05
-1.30747685e-05
-9.824523999e-06
-5.338314562e-06
1.334052775e-05
1.316711915e-05
1.487865502e-05
1.706796516e-05
1.95124625e-05
2.970968649e-05
3.005385739e-05
3.108420686e-05
3.234833821e-05
3.381909698e-05
3.816185413e-05
3.879909402e-05
3.967796132e-05
4.004993847e-05
4.124286119e-05
4.2305653e-05
4.248455229e-05
4.32792685e-05
4.329071116e-05
4.405752799e-05
4.346911082e-05
4.320530974e-05
4.365542905e-05
4.361494652e-05
4.409429689e-05
4.241325629e-05
4.187946838e-05
4.208474877e-05
4.211890327e-05
4.224771092e-05
3.93691013e-05
3.936170734e-05
3.924628918e-05
3.944108781e-05
3.920769769e-05
3.579446961e-05
3.575375758e-05
3.580966056e-05
3.572826938e-05
3.562482293e-05
3.144859663e-05
3.203445718e-05
3.201035922e-05
3.185909177e-05
3.175953926e-05
2.798743257e-05
2.826430302e-05
2.828598762e-05
2.803651255e-05
2.802373539e-05
2.527621238e-05
2.489173906e-05
2.480594133e-05
2.473687051e-05
2.45479547e-05
2.204878507e-05
2.200443887e-05
2.197091521e-05
2.17987038e-05
2.170475157e-05
1.977256362e-05
1.961967021e-05
1.958978526e-05
1.941675455e-05
1.932400556e-05
1.71695317e-05
1.765838948e-05
1.749811967e-05
1.740869465e-05
1.727898568e-05
1.525946621e-05
1.568311939e-05
1.555860996e-05
1.54889393e-05
1.53676469e-05
1.318510851e-05
1.357816366e-05
1.351964506e-05
1.344598399e-05
1.341666702e-05
1.095896977e-05
1.124866527e-05
1.132758997e-05
1.136299463e-05
1.137709289e-05
8.669403713e-06
9.061285309e-06
9.153430227e-06
9.277953147e-06
9.421203423e-06
6.816131979e-06
7.318114805e-06
7.39060875e-06
7.660842298e-06
7.866689529e-06
5.753330356e-06
6.411357243e-06
6.608154857e-06
6.825548072e-06
7.109448076e-06
6.198906325e-06
6.693775971e-06
6.866060146e-06
7.078904264e-06
7.32527242e-06
7.820680523e-06
7.968833431e-06
8.086680519e-06
8.228461123e-06
8.39339484e-06
9.621405618e-06
9.673794392e-06
9.69414829e-06
9.680328614e-06
9.730087719e-06
1.086038142e-05
1.084933584e-05
1.085669341e-05
1.07973917e-05
1.075624152e-05
1.104631551e-05
1.095402738e-05
1.08922199e-05
1.077423735e-05
1.069194937e-05
9.768933262e-06
9.7074721e-06
9.65022911e-06
9.562020866e-06
9.480472645e-06
7.854441157e-06
7.840274788e-06
7.802518359e-06
7.763601773e-06
7.715092284e-06
-9.055518236e-07
-1.313379021e-05
-2.532230645e-06
-8.163572021e-07
-5.432032167e-07
-4.809437363e-07
-4.640020542e-07
-4.590621591e-07
-4.580510309e-07
-4.574039796e-07
-4.570603765e-07
-4.565031098e-07
-4.558105091e-07
-4.553731123e-07
-4.550078737e-07
-4.54885907e-07
-4.547267066e-07
-4.543928576e-07
-4.543160877e-07
-4.542877874e-07
-4.542430836e-07
-4.541964317e-07
-4.541517717e-07
-4.541213223e-07
-4.541163129e-07
-4.541196122e-07
-4.541286429e-07
-4.541445956e-07
-4.54168031e-07
-4.541973927e-07
-4.542301713e-07
-4.542624306e-07
-4.542941097e-07
-4.543312788e-07
-4.543741138e-07
-4.544195749e-07
-4.544648144e-07
-4.545118126e-07
-4.545639489e-07
-4.546194974e-07
-4.546750269e-07
-4.547309171e-07
-4.54789078e-07
-4.548468352e-07
-4.549097171e-07
-4.549728461e-07
-4.550344931e-07
-4.550984258e-07
-4.551619265e-07
-4.552247321e-07
-4.552829911e-07
-4.553394996e-07
-4.553917998e-07
-4.554465006e-07
-4.555302502e-07
-4.557699155e-07
-4.564639324e-07
-4.575256257e-07
-4.561121022e-07
-4.55117319e-07
-8.783158179e-06
-4.341113551e-05
-4.433375757e-06
-1.263020646e-06
-9.139219018e-07
-8.455962005e-07
-8.232205127e-07
-8.142399782e-07
-8.103475336e-07
-8.093347053e-07
-8.086488206e-07
-8.08150137e-07
-8.078817201e-07
-8.074456605e-07
-8.069218298e-07
-8.067057646e-07
-8.069974025e-07
-8.075253216e-07
-8.082624394e-07
-8.087572761e-07
-8.089379592e-07
-8.0902102e-07
-8.090809425e-07
-8.091095268e-07
-8.091431233e-07
-8.092127663e-07
-8.092857866e-07
-8.094102126e-07
-8.095475688e-07
-8.096679924e-07
-8.098160362e-07
-8.099603032e-07
-8.101052762e-07
-8.103160798e-07
-8.105398198e-07
-8.107300203e-07
-8.109290309e-07
-8.111370214e-07
-8.113678546e-07
-8.115797607e-07
-8.118102817e-07
-8.120507961e-07
-8.122798293e-07
-8.125220634e-07
-8.128006206e-07
-8.130543137e-07
-8.133117911e-07
-8.135398337e-07
-8.137546753e-07
-8.139985758e-07
-8.141602716e-07
-8.143897218e-07
-8.145663109e-07
-8.147658155e-07
-8.150294947e-07
-8.158749543e-07
-8.186842247e-07
-8.279731014e-07
-8.526639498e-07
-8.829394824e-07
-1.657129905e-05
-3.342876229e-05
-3.324681542e-06
-9.230574492e-07
-7.640503014e-07
-7.419934843e-07
-7.365714616e-07
-7.300393645e-07
-7.294566921e-07
-7.308800959e-07
-7.31564456e-07
-7.337378768e-07
-7.347700317e-07
-7.357666036e-07
-7.360005619e-07
-7.357444821e-07
-7.370746838e-07
-7.400912265e-07
-7.426946184e-07
-7.444925344e-07
-7.456452924e-07
-7.464252648e-07
-7.470705552e-07
-7.476990659e-07
-7.483498526e-07
-7.490138858e-07
-7.496561608e-07
-7.502888812e-07
-7.509080513e-07
-7.514920727e-07
-7.520547412e-07
-7.526167292e-07
-7.531612107e-07
-7.537167461e-07
-7.542459964e-07
-7.547657361e-07
-7.55312057e-07
-7.55802785e-07
-7.563031315e-07
-7.567947213e-07
-7.572777719e-07
-7.57763856e-07
-7.58248583e-07
-7.587142365e-07
-7.592020362e-07
-7.596575624e-07
-7.601094147e-07
-7.605297621e-07
-7.60929676e-07
-7.61327124e-07
-7.616875555e-07
-7.620369906e-07
-7.623247833e-07
-7.626455703e-07
-7.630426964e-07
-7.640221029e-07
-7.669544194e-07
-7.755254517e-07
-7.934421648e-07
-8.080031018e-07
-1.849238192e-05
-4.230496187e-05
-6.12697026e-06
-2.010315304e-07
-2.245753213e-07
-2.882364246e-07
-3.119279776e-07
-3.222351596e-07
-3.313502292e-07
-3.381927661e-07
-3.442957421e-07
-3.493316092e-07
-3.535728654e-07
-3.569771191e-07
-3.592325679e-07
-3.607279258e-07
-3.640647618e-07
-3.69780241e-07
-3.744227243e-07
-3.777590435e-07
-3.801334313e-07
-3.819694389e-07
-3.835930741e-07
-3.851485785e-07
-3.866240892e-07
-3.879934556e-07
-3.892769616e-07
-3.904745926e-07
-3.915924523e-07
-3.926421032e-07
-3.936188676e-07
-3.945323137e-07
-3.953826431e-07
-3.961870076e-07
-3.969388269e-07
-3.976413747e-07
-3.983202093e-07
-3.98955787e-07
-3.99579727e-07
-4.001805976e-07
-4.00758194e-07
-4.013101809e-07
-4.018453585e-07
-4.023517006e-07
-4.028550691e-07
-4.033310999e-07
-4.0379365e-07
-4.042283151e-07
-4.046505139e-07
-4.0503568e-07
-4.05398492e-07
-4.057208265e-07
-4.060075906e-07
-4.062698801e-07
-4.065653518e-07
-4.069589966e-07
-4.076258574e-07
-4.078374372e-07
-4.029983063e-07
-3.920893213e-07
-1.492776769e-05
-5.985867548e-05
-3.875560414e-05
-2.439482976e-06
1.335314841e-07
1.429111999e-07
1.135057857e-07
9.31760464e-08
7.758051433e-08
6.495651624e-08
5.493437744e-08
4.763093301e-08
4.188825606e-08
3.772681921e-08
3.516347332e-08
3.364510517e-08
3.002227315e-08
2.405731573e-08
1.932963261e-08
1.60098108e-08
1.365976443e-08
1.174959475e-08
1.000452412e-08
8.337100466e-09
6.771579153e-09
5.335956881e-09
4.008227158e-09
2.792987357e-09
1.682578932e-09
6.641093974e-10
-2.566117277e-10
-1.094703725e-09
-1.850800028e-09
-2.528115401e-09
-3.136218998e-09
-3.684841809e-09
-4.186500646e-09
-4.650619933e-09
-5.096448999e-09
-5.51642718e-09
-5.917439054e-09
-6.294068991e-09
-6.657871298e-09
-7.000202373e-09
-7.332257407e-09
-7.646673967e-09
-7.965594132e-09
-8.268040298e-09
-8.572461489e-09
-8.843060412e-09
-9.098790442e-09
-9.314996565e-09
-9.52218655e-09
-9.661078003e-09
-9.745407595e-09
-9.466134333e-09
-8.03280705e-09
-2.222713395e-09
1.425072162e-08
3.375143954e-08
-8.636551409e-06
-7.630771043e-05
-8.465748207e-05
-2.15547547e-05
-2.704950489e-08
5.021031703e-07
4.142191256e-07
3.744918559e-07
3.497017424e-07
3.327785916e-07
3.200588322e-07
3.113998018e-07
3.060234527e-07
3.023139323e-07
3.002802459e-07
2.996618611e-07
2.968552601e-07
2.923507852e-07
2.888295482e-07
2.863919524e-07
2.847542862e-07
2.834444458e-07
2.822032388e-07
2.809952242e-07
2.798573997e-07
2.78794975e-07
2.778285264e-07
2.769749816e-07
2.762106253e-07
2.755321769e-07
2.749520848e-07
2.744456053e-07
2.740152322e-07
2.73652736e-07
2.733543732e-07
2.731082437e-07
2.729077758e-07
2.727431567e-07
2.725942852e-07
2.724664444e-07
2.723552372e-07
2.72246602e-07
2.721384652e-07
2.72035262e-07
2.719249835e-07
2.718114947e-07
2.716849364e-07
2.715515644e-07
2.713938373e-07
2.712539336e-07
2.711014936e-07
2.709727524e-07
2.708375377e-07
2.707621649e-07
2.707907121e-07
2.713048244e-07
2.73275344e-07
2.795741997e-07
2.941575527e-07
3.089903402e-07
-4.296045857e-06
-6.962088905e-05
-0.0001178320851
-9.258239742e-05
-9.630736654e-06
1.055810922e-06
6.768165662e-07
5.519493476e-07
5.051748117e-07
4.769079271e-07
4.604102986e-07
4.485937106e-07
4.419185399e-07
4.387078631e-07
4.364294746e-07
4.359131373e-07
4.341079303e-07
4.306958883e-07
4.282608413e-07
4.268370297e-07
4.259752925e-07
4.253824746e-07
4.24720877e-07
4.240442561e-07
4.23372646e-07
4.227368872e-07
4.221721409e-07
4.216820904e-07
4.212480058e-07
4.209044335e-07
4.206289704e-07
4.204161103e-07
4.202713332e-07
4.20186804e-07
4.201375262e-07
4.201583203e-07
4.20197847e-07
4.202708161e-07
4.20362164e-07
4.204649656e-07
4.20577009e-07
4.206859517e-07
4.207760809e-07
4.208680225e-07
4.209253858e-07
4.209549773e-07
4.209677669e-07
4.209499085e-07
4.209072477e-07
4.208400255e-07
4.207509883e-07
4.206535193e-07
4.205333676e-07
4.204741147e-07
4.204267076e-07
4.208652835e-07
4.222428113e-07
4.263586715e-07
4.347191154e-07
4.42576439e-07
-1.6708878e-06
-3.441804991e-05
-0.0001279619697
-0.0001498421885
-6.883935566e-05
3.225362575e-06
1.685003499e-06
8.116240538e-07
6.338713081e-07
5.67304748e-07
5.323798643e-07
5.141645162e-07
5.022606268e-07
4.966838103e-07
4.944936473e-07
4.932926824e-07
4.915782773e-07
4.889821635e-07
4.869732893e-07
4.858810043e-07
4.85713438e-07
4.854132016e-07
4.852908781e-07
4.84951299e-07
4.845853328e-07
4.841649382e-07
4.838436425e-07
4.835701594e-07
4.833286115e-07
4.831355875e-07
4.830236877e-07
4.829615526e-07
4.82964573e-07
4.830141876e-07
4.831408446e-07
4.832624511e-07
4.834665047e-07
4.836481191e-07
4.839012031e-07
4.841261487e-07
4.843965661e-07
4.846064809e-07
4.848535331e-07
4.850781227e-07
4.852331881e-07
4.853696357e-07
4.854638059e-07
4.85516785e-07
4.855129377e-07
4.855243358e-07
4.854799469e-07
4.853573362e-07
4.85242992e-07
4.85137956e-07
4.850870712e-07
4.852411448e-07
4.859241805e-07
4.878682005e-07
4.915478365e-07
4.94875596e-07
-7.439160479e-07
-1.655378018e-05
-0.0001596318484
-0.000198160612
-0.0001662390778
7.822070092e-06
8.273146407e-06
1.724312238e-06
8.618586438e-07
6.726740002e-07
5.931937771e-07
5.522769344e-07
5.32462518e-07
5.209523751e-07
5.163039256e-07
5.14844288e-07
5.124637958e-07
5.096453632e-07
5.082822822e-07
5.073483738e-07
5.069557126e-07
5.070915845e-07
5.071820917e-07
5.06863374e-07
5.067326603e-07
5.064015524e-07
5.061308565e-07
5.059068926e-07
5.056941284e-07
5.055607939e-07
5.055108702e-07
5.054327461e-07
5.05443593e-07
5.055145403e-07
5.057173474e-07
5.058715338e-07
5.060627846e-07
5.064125784e-07
5.066618541e-07
5.069990068e-07
5.073445773e-07
5.076967152e-07
5.078243047e-07
5.083545377e-07
5.085617071e-07
5.087275896e-07
5.088728011e-07
5.089801641e-07
5.090314394e-07
5.090403128e-07
5.089940109e-07
5.089115007e-07
5.087983636e-07
5.086755831e-07
5.08570221e-07
5.085547646e-07
5.087626281e-07
5.094628329e-07
5.108133845e-07
5.120764555e-07
2.520613586e-06
-9.01694058e-06
-0.0001358830259
-0.0002409188617
-0.0002648555479
-6.51295373e-05
3.70695134e-05
5.266719008e-06
1.437780725e-06
8.651555133e-07
6.824346325e-07
5.943994935e-07
5.568601381e-07
5.365568979e-07
5.257980887e-07
5.230624851e-07
5.202805291e-07
5.165076788e-07
5.149077126e-07
5.144825189e-07
5.141308243e-07
5.14095629e-07
5.141720532e-07
5.140637092e-07
5.138114304e-07
5.135333315e-07
5.132728184e-07
5.130125063e-07
5.127616486e-07
5.125626453e-07
5.124286429e-07
5.12351786e-07
5.123320287e-07
5.123799271e-07
5.12506898e-07
5.126896456e-07
5.12921314e-07
5.132152174e-07
5.135442131e-07
5.138979813e-07
5.1430733e-07
5.146564311e-07
5.150305152e-07
5.153900496e-07
5.156923517e-07
5.159389669e-07
5.16135688e-07
5.162837053e-07
5.163764848e-07
5.164112293e-07
5.16389841e-07
5.163202249e-07
5.162117965e-07
5.160808604e-07
5.159456925e-07
5.158404441e-07
5.158204126e-07
5.159953782e-07
5.164491172e-07
5.169467421e-07
9.379936352e-06
0.0005303203426
-5.615499624e-05
-0.000305985122
-0.0003589174068
-0.0002075157729
0.0001178345003
1.940450085e-05
3.053889999e-06
1.307793454e-06
8.4413444e-07
6.639622792e-07
5.886710152e-07
5.516003008e-07
5.341384593e-07
5.278904765e-07
5.236603048e-07
5.194976791e-07
5.175261906e-07
5.170636976e-07
5.167527812e-07
5.165512584e-07
5.165531515e-07
5.164739469e-07
5.162229442e-07
5.15890493e-07
5.155423042e-07
5.152030644e-07
5.148821151e-07
5.146012466e-07
5.143892024e-07
5.142476496e-07
5.141659935e-07
5.141537881e-07
5.142222082e-07
5.143703719e-07
5.145896074e-07
5.148705358e-07
5.152060665e-07
5.15582856e-07
5.159854881e-07
5.163931024e-07
5.167945898e-07
5.171732369e-07
5.175168554e-07
5.178104772e-07
5.180494744e-07
5.182349124e-07
5.183599292e-07
5.184214001e-07
5.184224673e-07
5.183671949e-07
5.182673672e-07
5.181363904e-07
5.179892901e-07
5.178465502e-07
5.177409212e-07
5.177362244e-07
5.17896031e-07
5.181387678e-07
6.539641314e-05
9.411910241e-06
-3.906598612e-05
-0.0004465553911
-0.0005419824298
-0.0004122187143
0.0001325314731
7.925363301e-05
1.034136911e-05
2.575510332e-06
1.201158335e-06
7.889496284e-07
6.340794071e-07
5.732040239e-07
5.459844997e-07
5.327002303e-07
5.256984884e-07
5.21870694e-07
5.19607528e-07
5.183476497e-07
5.178486773e-07
5.17878971e-07
5.180184126e-07
5.178228207e-07
5.174409124e-07
5.170204928e-07
5.165717717e-07
5.161354309e-07
5.1573595e-07
5.15375233e-07
5.150685934e-07
5.148348989e-07
5.146764898e-07
5.145952094e-07
5.145992146e-07
5.146923971e-07
5.148704455e-07
5.151229923e-07
5.154392795e-07
5.158065423e-07
5.162093678e-07
5.166302367e-07
5.170493136e-07
5.174512367e-07
5.178244666e-07
5.18153494e-07
5.184259867e-07
5.186410243e-07
5.187931713e-07
5.18877901e-07
5.18898107e-07
5.18857462e-07
5.187663423e-07
5.186384383e-07
5.184884083e-07
5.183333874e-07
5.182022168e-07
5.181468697e-07
5.182136948e-07
5.183690861e-07
2.933482764e-06
-2.659511974e-06
-3.87603569e-05
-0.0004984093671
-0.0007553975391
-0.0006964509262
4.420596033e-05
0.000264379515
2.679493308e-05
5.710050348e-06
1.940464507e-06
1.001997331e-06
7.050236592e-07
6.001900766e-07
5.583157004e-07
5.400808235e-07
5.3058824e-07
5.232560603e-07
5.201196201e-07
5.19782063e-07
5.193753021e-07
5.192596537e-07
5.191883862e-07
5.187634639e-07
5.184078214e-07
5.180090218e-07
5.17464059e-07
5.169008267e-07
5.163962075e-07
5.159469666e-07
5.155495629e-07
5.15220321e-07
5.149732448e-07
5.148130999e-07
5.147436745e-07
5.147691875e-07
5.14889761e-07
5.150965232e-07
5.153777102e-07
5.15720165e-07
5.16108862e-07
5.165267222e-07
5.169529145e-07
5.173684726e-07
5.177599224e-07
5.18112435e-07
5.18410072e-07
5.186480622e-07
5.188218033e-07
5.18925825e-07
5.189617447e-07
5.18933638e-07
5.188510012e-07
5.187272544e-07
5.185780468e-07
5.184209702e-07
5.182852016e-07
5.18217578e-07
5.182482557e-07
5.183684808e-07
-7.547625659e-06
-8.447006547e-06
-0.0005704634605
-0.0003431685307
-0.000940889924
-0.0009385892783
-9.376522358e-05
0.0004717708145
8.660663785e-05
1.389682563e-05
3.391419618e-06
1.358916859e-06
8.127204615e-07
6.415344508e-07
5.785576264e-07
5.491178012e-07
5.32899616e-07
5.250748406e-07
5.218460877e-07
5.211475759e-07
5.205187416e-07
5.204459249e-07
5.202500637e-07
5.199223987e-07
5.194791586e-07
5.189196473e-07
5.183185272e-07
5.177127444e-07
5.171183105e-07
5.165640727e-07
5.160725884e-07
5.156516345e-07
5.153114749e-07
5.150657852e-07
5.149191316e-07
5.148715748e-07
5.149249386e-07
5.15075284e-07
5.153110976e-07
5.156185962e-07
5.159825454e-07
5.163855478e-07
5.168073845e-07
5.172266834e-07
5.176261547e-07
5.179919854e-07
5.183064971e-07
5.185600726e-07
5.187496071e-07
5.188681808e-07
5.189164147e-07
5.188983621e-07
5.188232045e-07
5.187041542e-07
5.185575069e-07
5.184019451e-07
5.182674191e-07
5.181975792e-07
5.182064664e-07