/*--------------------------------*- C++ -*----------------------------------*\
  =========                 |
  \\      /  F ield         | OpenFOAM: The Open Source CFD Toolbox
   \\    /   O peration     | Website:  https://openfoam.org
    \\  /    A nd           | Version:  10
     \\/     M anipulation  |
\*---------------------------------------------------------------------------*/
FoamFile
{
    format      ascii;
    class       volScalarField;
    location    "0.0250188088";
    object      ddt0(rho,CH4);
}
// * * * * * * * * * * * * * * * * * * * * * * * * * * * * * * * * * * * * * //

dimensions      [1 -3 -1 0 0 0 0];

internalField   nonuniform List<scalar> 
5170
(
-0.2343586352
0.04827434933
-0.001364656754
-0.1208187069
0.01586806337
-0.03446799594
-0.0281692374
-0.03619341588
-0.02725398077
-0.03329002242
-0.02629657082
-0.0332132893
-0.02962763492
-0.03062234371
-0.03057398388
-0.02757531291
-0.03182502986
-0.02909342018
-0.03063130179
-0.02989815854
-0.028796507
-0.03041415193
-0.029250522
-0.02998520167
-0.0294483588
-0.02726865874
-0.02716816713
-0.02727820307
-0.02712102947
-0.02684351485
-0.02631102723
-0.02866994801
-0.02465002429
-0.02925742362
-0.02643138908
-0.02779284233
-0.02477603987
-0.02709735422
-0.02549319587
-0.02580010643
-0.016810296
-0.01690486869
-0.02157452265
-0.01718175757
-0.01665540894
-0.01680877718
-0.0156606905
-0.01241177125
-0.01659943594
-0.01549154118
-0.01954695947
-0.01765132713
-0.01373536715
-0.01863067489
-0.01921861145
-0.01300641704
-0.01314688258
-0.01294226424
-0.01338209712
-0.01388725169
-0.009948994702
-0.008535109943
-0.01265864044
-0.008933071973
-0.009449876877
-0.00759901562
-0.007548628029
-0.009376487227
-0.007749237515
-0.007882481076
-0.007741531437
-0.007561841643
-0.007364797233
-0.007814567316
-0.008505447659
-0.009229970264
-0.007262854726
-0.008284767802
-0.007929795122
-0.008962195187
-0.007205644724
-0.007765440621
-0.007154134894
-0.00753571916
-0.007427963252
-0.007198470014
-0.005774125051
-0.005568850661
-0.007583667797
-0.005348202782
-0.007311767283
-0.00631107212
-0.02122511486
0.007919912103
-0.01563432639
-0.0215508114
-0.001991490379
-0.01868859641
-0.01852175588
-0.005425255645
-8.145202757e-16
-9.607684049e-16
1.022266255e-15
1.004750555e-15
1.021051473e-15
-3.395102671e-16
-3.967611226e-17
2.255143529e-16
-2.250789592e-16
4.876112908e-16
-5.924219859e-17
-4.16635584e-17
-4.691640306e-16
-1.904287371e-16
-2.770831624e-16
2.560101741e-17
1.367135161e-15
2.9077486e-17
-7.352955612e-15
3.601922708e-13
-3.807865964e-12
4.150548109e-14
6.98978357e-14
5.722178615e-12
-1.567112593e-10
6.990150244e-09
1.002489924e-09
8.683476556e-10
-7.375647342e-10
-4.102304583e-09
6.689567944e-09
7.528194888e-09
-1.6221081e-09
-1.005617271e-09
-3.340122888e-08
-2.80584647e-08
-2.26604971e-09
-7.614543555e-09
-2.447674846e-08
-4.885583986e-08
-7.491244388e-08
1.739432905e-08
3.325040968e-08
3.440984174e-08
6.019970092e-08
-1.298325452e-08
-2.809804214e-08
-2.969555955e-08
-8.128791968e-08
2.341672781e-07
8.922693225e-08
-8.349308135e-08
-1.481616155e-08
8.775771411e-08
6.813030884e-07
-5.292156126e-08
1.06242846e-07
-1.082321676e-07
1.675017059e-08
-2.383255775e-06
6.501468759e-08
6.91006332e-08
1.532382059e-09
1.350525087e-08
-1.018768534e-08
-6.01569906e-08
-3.572739856e-07
5.450282947e-07
1.105600342e-08
1.51703369e-08
2.328742542e-07
-8.804245817e-07
1.787705028e-08
3.96771284e-10
2.098350639e-09
-6.926509389e-07
5.82828813e-08
5.97880453e-07
1.345428873e-07
1.720308843e-07
-1.391572223e-06
-3.337502142e-07
-7.716527977e-07
-1.822762786e-06
2.022843185e-07
3.297205075e-06
-7.766965065e-09
-1.752267535e-07
3.449010167e-08
1.421203729e-07
6.101341803e-05
-8.099827188e-05
-1.54765273e-05
5.676080727e-06
1.330696319e-07
-0.0006672985047
-9.882788367e-06
-0.0001120353673
-2.43277423e-05
6.99641716e-07
0.4676344562
-0.1114399476
0.08617864636
0.08767158086
-0.6489606238
-0.3508991966
0.4963472149
-0.2171155724
-0.2958689075
0.4715762202
0.2009098824
0.002597429715
0.01341419922
-0.2920560717
0.2033615206
0.5230031362
-0.2732892763
0.03876806211
-0.482117029
-0.2281217168
-0.045485829
-0.07339606938
0.2600661082
-0.06330711012
-0.4411538201
0.2747718977
-0.09745600703
0.05877579879
0.06366147523
-0.06114290509
-0.2074149893
0.1977351022
-0.4790600452
-0.03732956652
0.1144994412
-0.06799523011
-0.179316462
-0.2901247166
-0.2475834049
-0.04907523478
0.1915096614
-0.1482135515
-0.3973378086
-0.183897745
-0.1410434377
0.6278495072
0.3541860051
0.0775252796
0.02290708976
-0.06837362158
-0.04097267349
0.639359002
0.7231650819
0.3407237624
0.1068050017
1.211612394
0.9895563116
0.6540679409
0.5056976785
0.3997303369
0.546572831
0.544924003
0.5027862299
0.3870600324
0.3104512064
-0.2273562183
0.06169366108
0.2228645374
0.2344558468
0.138874281
-0.09034848862
0.01492599951
-0.129409069
-0.1189168429
-0.09643254299
-0.2780952235
-0.218979154
-0.1890096865
-0.1681616604
-0.204515995
0.1741891149
0.1250895524
0.07016163124
-0.001614872945
-0.01124262658
0.07838282145
0.05880590061
0.06366522184
0.1188968081
0.2270868567
-0.3912858288
-0.3149134576
-0.1144594455
0.08137850375
0.2428992934
0.2663592485
0.2459624673
0.2761067627
0.1698899168
-0.07785218954
1.337862879
1.155549205
0.6879363173
0.01772309196
-0.7129895062
1.035810243
0.6880192407
0.006750513583
-0.762206529
-1.527801308
-0.471997173
-0.6988317334
-1.09357455
-1.599414562
-2.140151766
-1.578561434
-1.688094399
-1.888925009
-2.162204371
-2.448254324
-2.15667405
-2.217410039
-2.311977918
-2.446599278
-2.642276744
-2.327726856
-2.345165681
-2.387504438
-2.426795996
-2.488741697
-2.166027605
-2.179116152
-2.18152719
-2.181712887
-2.211550806
-1.867893722
-1.841504816
-1.848777676
-1.834600171
-1.8136611
-1.490936881
-1.470403722
-1.472294851
-1.453985282
-1.424883277
-1.112571246
-1.118130636
-1.107391524
-1.090665781
-1.079933907
-0.8010975702
-0.7887468422
-0.788574446
-0.7721557259
-0.7688332584
-0.5201171578
-0.5195949549
-0.512162595
-0.50961087
-0.4822790195
-0.3055145517
-0.2923613227
-0.2906494916
-0.2916955683
-0.2715300703
-0.1264363348
-0.1231986372
-0.1269506139
-0.1223725415
-0.1074405443
-0.01196415633
-0.0108506658
-0.01032127587
-0.008925248148
-0.008955441607
0.04964395594
0.05406104173
0.05558047459
0.04952852387
0.05853986398
0.07878836326
0.07655
0.078069732
0.07685223136
0.07821272376
0.07810813498
0.07546309988
0.07803124693
0.07465755061
0.08100740322
0.05742717477
0.06663785628
0.06499325392
0.06160694896
0.05967571492
0.05174984407
0.04684019201
0.04580148797
0.05000010822
0.04437516824
0.03447501407
0.03264530578
0.03335976116
0.03360254414
0.03313768642
0.02115751003
0.02255503871
0.02309219618
0.02124981245
0.02509942419
0.01739946867
0.01381498836
0.01479783074
0.01447727919
0.01839768939
0.01062382131
0.009930425469
0.01014070639
0.009450769756
0.01381269971
0.008894033425
0.006616331031
0.006969767953
0.007381024335
0.008045936735
0.005369232725
0.005690686384
0.005579648779
0.005412337059
0.00433946986
0.005393226246
0.004379849437
0.004402860973
0.004447945692
0.004304505077
0.00474414337
0.003818022449
0.003670568307
0.003872184946
0.005202325531
0.004363656279
0.003294486547
0.003465697865
0.003257740368
0.00576128901
0.003622386763
0.003165485196
0.003059501504
0.003504417646
0.003729850009
0.002796392875
0.003290705875
0.003019768653
0.00291300203
0.003063445954
0.002478670971
0.002947991994
0.003191748094
0.00284704734
0.0008591433568
0.004227882946
0.002476381981
0.002221752731
0.003422618673
0.001357079178
0.002296577248
0.002804675743
0.002658705606
0.002482467883
0.004063840958
0.003593620027
0.001948458103
0.00297078209
0.002277254779
0.002668803418
0.003389646374
0.00212884822
0.002489934355
0.002585028749
0.002635664508
0.002026498604
0.002572632505
0.002420779993
0.002809476306
0.0003917976439
0.002110558641
0.002468391651
0.00240183118
0.002640223809
0.0005621313002
0.002144565809
0.002361689416
0.002426902659
0.002452543103
0.0007327490246
0.002385198338
0.00220743389
0.002267412364
0.00244692975
0.001073822856
0.002186965812
0.002162719581
0.002190921875
0.002418352542
0.001184666352
0.001854615503
0.002056515809
0.002270690715
0.002305732897
0.001117010783
0.001893973035
0.002019172706
0.002169254573
0.002214997209
0.0002594820227
0.002113038099
0.00187930338
0.00189619431
0.002260436096
0.0005859032826
0.001689281427
0.002042971301
0.001719114607
0.001989850501
0.001611050936
0.001970405214
0.001692976957
0.001789755474
0.001826539175
0.001627312138
0.001692047262
0.001720709472
0.001766581125
0.001680181087
0.001523288652
0.00176056944
0.001605119843
0.001708018328
0.001659347215
0.001684289773
0.001585881765
0.001575932989
0.001673147691
0.001549940414
0.001665198519
0.001555059829
0.001471995161
0.001502485174
0.001497486255
0.001596139823
1.406662139
-1.10684762
-0.6263231446
-1.030781591
-0.3189556755
-0.1626038194
0.19839632
0.05179597751
-0.1294153
-0.07753412647
0.07266133214
0.372307125
0.08464255767
0.02220034661
-0.1656945832
0.07270780828
-0.1206964063
0.3087743817
0.1929281874
-0.3010293012
-1.241042677
-2.005874318
-2.436922406
-2.728553835
-2.618599499
-2.498167152
-2.134016161
-1.823904612
-1.439199937
-1.038070962
-0.7209484645
-0.5371670061
-0.3078805277
-0.1553632538
-0.005096430408
0.03954078596
0.07033360305
0.05701005842
0.07846684014
0.05338664861
0.03065085335
0.01187075603
0.001357526273
-0.003809926193
0.003540254151
0.01004335246
0.005764071464
-0.0008248443699
-0.004598255925
0.0008060969106
0.003094601209
0.01068131336
0.007195817367
-0.002650526408
0.002639088309
0.001680133025
0.009574189997
0.008859494129
0.008104517026
0.006378115937
0.005675207459
0.005532498902
0.008622116652
0.006705193223
0.002627051559
0.002321196436
0.002548719608
0.001608233926
0.001505621501
0.001167004074
-0.5876160145
0.02062568782
-0.0008016041629
-3.139196346e-07
7.857739508e-07
-0.03865294175
-0.006347400556
-0.01027842693
0.0001302113556
-6.055956871e-06
-0.0004900095077
0.09957811047
0.07218959457
0.007655485434
6.159078976e-05
-0.1258905846
0.02337083734
-0.01312928763
0.0001274285163
-7.704906807e-05
-0.1031774665
-0.08310409044
-0.06099774764
-0.01067978516
-0.0005935476595
-0.03246884668
0.04466901542
0.06324704535
0.01937914212
0.001349645766
0.1622177343
0.107051552
0.002701953703
0.01561489551
0.003290822717
0.07498861247
0.01798053458
-0.06648125374
0.01077274454
0.002184732739
-0.09827484334
-0.06153142466
-0.0774741971
-0.06904617055
-0.006350954964
-0.01121865134
0.04337881399
-0.002166442626
-0.04129210152
0.009152818192
0.109381267
0.06840852322
0.08501602213
0.1526363652
0.01944030468
0.2312017804
0.1190586679
0.1349318195
0.1193745026
0.02651957999
0.131002655
0.05879320992
0.07518883164
0.02958617083
0.01493951397
-0.06897371015
-0.05905777279
-0.03359017655
-0.03721883636
-0.01364157686
-0.08600196559
-0.03933301151
-0.04337086197
-0.04415418673
0.02737795472
-0.0917749405
-0.04210679196
-0.08374521647
-0.08085793966
-0.1087329192
-0.03410496246
-0.01056394766
0.02565542121
0.1001369303
0.1761041906
0.3270833832
0.494969434
0.6761247431
0.7954163942
0.6678055953
0.4441412442
0.6941907424
0.9667733421
1.099462531
0.9536262374
-0.5885124419
-1.414761546
-2.933908622
-4.966942557
-2.685892753
-1.781672108
-2.776907194
-4.063891525
-5.752458298
-7.013876103
-2.595505309
-3.431900061
-4.203014861
-5.024393888
-5.730761441
-2.892523731
-3.492775283
-4.033118308
-4.433616175
-4.650921504
-2.978229023
-3.372120169
-3.6436845
-3.794901499
-3.79488029
-2.877642687
-3.050025299
-3.152919545
-3.15589297
-3.054328766
-2.582529439
-2.631083935
-2.622018159
-2.544445262
-2.402763758
-2.21667907
-2.194410693
-2.13573029
-2.028764951
-1.885434382
-1.801531184
-1.762415741
-1.685729386
-1.582235746
-1.454486101
-1.404835159
-1.361593038
-1.292450766
-1.202499452
-1.101135455
-1.05108265
-1.011995152
-0.9563902838
-0.8873943404
-0.8106141495
-0.7448379456
-0.7151370015
-0.674370199
-0.625117342
-0.5694174081
-0.4812588697
-0.467144769
-0.4399078129
-0.4053968009
-0.3677182794
-0.2739579774
-0.2653579967
-0.24872195
-0.2261699935
-0.2024428505
-0.1132659475
-0.1126409103
-0.1014825474
-0.09068203607
-0.0754259679
-0.00903091257
-0.006933531216
-0.003608978168
0.002444447309
0.008837957426
0.05326584674
0.05098715201
0.05250262156
0.05297674826
0.05538035356
0.07568668068
0.07445964384
0.07260648324
0.07279772182
0.07098331429
0.07615836114
0.07353102499
0.07218744099
0.07036551573
0.0687637569
0.06116311086
0.06124643666
0.06074624116
0.05819955199
0.05708464092
0.04641108651
0.04633787737
0.04553167913
0.0441501655
0.04257891467
0.03300474652
0.03294024533
0.03157240856
0.03146528163
0.02982343873
0.02299217219
0.02210552375
0.02147657436
0.02120313423
0.02022937867
0.01584045123
0.01456927446
0.01459265334
0.01388916447
0.01372859513
0.01119286958
0.009904514407
0.009807727091
0.009609802203
0.009231970191
0.007438238871
0.007086855141
0.007005791191
0.006817579627
0.006596383108
0.005118134536
0.005304801528
0.005504396956
0.004980882184
0.005170355999
0.004395533642
0.004225850452
0.004592027324
0.004020541391
0.004209040759
0.004269894035
0.003713563889
0.003893545077
0.003492708599
0.003645567604
0.004160535191
0.00336841697
0.003397065862
0.003270715217
0.003162745163
0.003392779292
0.003227647735
0.002988808165
0.003153897202
0.002824586864
0.003035719189
0.002901274738
0.002929091998
0.002826944232
0.002733717038
0.002194470485
0.002818923743
0.002793050393
0.002662615425
0.002627015185
0.002373293904
0.002669834608
0.002724234226
0.002502446985
0.002586616225
0.003062677437
0.002597204934
0.002539319653
0.0025392427
0.002422134646
0.002543688797
0.002504630471
0.002522601792
0.002411561623
0.002407095159
0.002581530095
0.002432123771
0.002467388028
0.00235461943
0.002353626674
0.001824045134
0.002470092015
0.002354845733
0.002344960934
0.002294507242
0.001832648223
0.002396154292
0.002309981405
0.002304802026
0.002239885913
0.001843546843
0.002329134112
0.002274717508
0.002232168723
0.002214129424
0.001950214183
0.002232307199
0.002231629709
0.002203703412
0.002135344295
0.001893980513
0.002214319702
0.002158113229
0.002130700006
0.002104430571
0.001803562619
0.002202211288
0.002038219022
0.002098978229
0.002038175835
0.001489493184
0.002068617062
0.002032472102
0.001985438802
0.001986811189
0.00156327912
0.001979090335
0.001941684965
0.001920024398
0.001904249934
0.001811873652
0.001871402078
0.001856787575
0.001839820031
0.001820982232
0.001746775745
0.001793331633
0.001779049415
0.001771571508
0.001747123251
0.001663203388
0.001720500344
0.001732856756
0.001711750707
0.001704016257
0.001699035704
0.001674678691
0.001706590738
0.00166919704
0.00168461042
0.001638953136
0.001631981358
0.001653113667
0.001646287087
0.001657910899
0.001541899599
0.001527672959
0.00153501837
0.001539478945
0.001544161145
-3.765414577e-06
-5.384117424e-07
8.454208867e-07
1.187939731e-06
1.264692306e-06
-1.313022046e-06
-1.315434494e-06
1.284649922e-06
1.286085304e-06
-1.314989852e-06
-1.315107718e-06
1.28468194e-06
1.27548091e-06
1.274515326e-06
1.274514062e-06
1.274671852e-06
1.275778961e-06
9.546883863e-07
4.62141303e-07
2.19670136e-07
1.025759731e-07
4.707367475e-08
2.123874289e-08
9.424046528e-09
4.113601387e-09
1.766770756e-09
7.467718929e-10
3.106723421e-10
1.27222208e-10
5.128505502e-11
2.035131343e-11
7.949861883e-12
3.056828341e-12
1.15689526e-12
4.309089987e-13
1.579406398e-13
5.695869677e-14
2.020780794e-14
7.0518311e-15
2.420103487e-15
8.166481577e-16
2.709252339e-16
8.835053048e-17
2.831597811e-17
8.917749065e-18
2.759403002e-18
8.38790944e-19
2.504491508e-19
7.344563816e-20
2.115202823e-20
5.981938572e-21
1.661135382e-21
4.52912422e-22
1.212378935e-22
3.185527078e-23
8.204403892e-24
2.05351316e-24
4.766013703e-25
7.549321374e-26
4.535854699e-27
-6.538564238e-05
-2.551502793e-05
-8.957765701e-06
-1.336333513e-06
-2.076235827e-07
-6.88605594e-07
-1.176655183e-06
1.246867917e-06
-1.332769249e-06
1.293426054e-06
1.292577638e-06
-1.32217896e-06
-1.322643935e-06
1.284748149e-06
1.274327191e-06
1.274492543e-06
1.274812458e-06
1.275449613e-06
1.276950005e-06
1.279431902e-06
6.877816724e-07
3.135621695e-07
1.406635228e-07
6.210855374e-08
2.699805358e-08
1.155576864e-08
4.870825887e-09
2.021975069e-09
8.266705449e-10
3.328668444e-10
1.319998852e-10
5.154804783e-11
1.982192959e-11
7.504541044e-12
2.79696981e-12
1.026054963e-12
3.70425314e-13
1.315834839e-13
4.598252696e-14
1.580487589e-14
5.341923551e-15
1.775253939e-15
5.800069338e-16
1.862503948e-16
5.877158102e-17
1.822211748e-17
5.550444856e-18
1.660724639e-18
4.880455246e-19
1.408551987e-19
3.992068345e-20
1.110974215e-20
3.035728392e-21
8.14401767e-22
2.144380886e-22
5.531451634e-23
1.384176978e-23
3.157243983e-24
4.943412759e-25
3.13624907e-26
-0.0002645999473
-0.0004566289285
-6.062610822e-05
-9.399978332e-06
-2.913872651e-06
-1.220874533e-06
-5.245156444e-07
-1.685234774e-07
-6.27898133e-08
-1.090835919e-06
1.225980508e-06
-1.325089217e-06
1.303863221e-06
-1.332519905e-06
1.284264368e-06
1.275487643e-06
4.340493113e-07
1.277305658e-06
1.274312522e-06
1.274302064e-06
1.276227123e-06
1.279134965e-06
6.205785817e-07
2.718024699e-07
1.173160304e-07
4.990800063e-08
2.092777954e-08
8.65014712e-09
3.524184144e-09
1.415139525e-09
5.600183594e-10
2.183797782e-10
8.390046919e-11
3.175296501e-11
1.183562373e-11
4.344085478e-12
1.569693914e-12
5.582733955e-13
1.953880288e-13
6.727749772e-14
2.278565296e-14
7.588798106e-15
2.485178738e-15
8.001185014e-16
2.531736478e-16
7.871588831e-17
2.404622132e-17
7.21628961e-18
2.127185162e-18
6.158489403e-19
1.750976737e-19
4.888647311e-20
1.340193352e-20
3.607157873e-21
9.527190238e-22
2.462030605e-22
6.136251104e-23
1.363336911e-23
2.051102348e-24
1.258920368e-25
-0.0004232467157
-0.001791825006
-0.0005340221386
-5.69789136e-05
-1.551586063e-05
-7.226968884e-06
-3.699284423e-06
-1.780101496e-06
-7.079513158e-07
-1.657374781e-07
3.267726849e-08
-1.944857657e-07
-1.234678544e-06
6.453348391e-07
1.286852301e-06
-1.322121221e-06
1.278098546e-06
1.274319381e-06
1.275296372e-06
1.275269703e-06
1.274299961e-06
1.274292635e-06
1.277163068e-06
1.013184336e-06
4.341834393e-07
1.835154604e-07
7.65118002e-08
3.146667777e-08
1.276511775e-08
5.107565538e-09
2.015415557e-09
7.841672941e-10
3.007920211e-10
1.137228264e-10
4.2369684e-11
1.555197535e-11
5.622517106e-12
2.001612911e-12
7.014891224e-13
2.419584961e-13
8.211776754e-14
2.741484143e-14
9.000443892e-15
2.905648327e-15
9.222793077e-16
2.877154181e-16
8.819393368e-17
2.656117654e-17
7.858568028e-18
2.283850375e-18
6.518873711e-19
1.827345022e-19
5.030037308e-20
1.35937568e-20
3.603619241e-21
9.329503283e-22
2.307930718e-22
4.978280174e-23
7.15010638e-24
4.221297851e-25
-0.0003914709135
-0.00279730212
-0.003378484062
-0.0004867769144
-7.034545669e-05
-2.465730985e-05
-1.168988913e-05
-5.684665632e-06
-2.488070891e-06
-8.15856664e-07
-3.751417849e-08
2.206417574e-07
2.16480669e-07
1.635254939e-07
1.266675091e-06
-1.316275696e-06
-1.322453698e-06
1.293787649e-06
-1.320898173e-06
-1.320595545e-06
1.282496355e-06
1.27429914e-06
1.274291901e-06
1.275212163e-06
1.278573708e-06
6.108674859e-07
2.536861841e-07
1.039457774e-07
4.202460008e-08
1.676415617e-08
6.597957521e-09
2.561731317e-09
9.810303087e-10
3.704843576e-10
1.379424421e-10
5.062432432e-11
1.830794556e-11
6.522587061e-12
2.28864304e-12
7.906645269e-13
2.688733926e-13
8.997564189e-14
2.961971707e-14
9.589548842e-15
3.053108591e-15
9.557643935e-16
2.940920124e-16
8.892175283e-17
2.641605018e-17
7.709577104e-18
2.210268786e-18
6.223840724e-19
1.721127741e-19
4.672611481e-20
1.243305515e-20
3.221260501e-21
7.893715055e-22
1.652408818e-22
2.265695608e-23
1.289255944e-24
-0.0001781019738
-0.00288059705
-0.007007909248
-0.00334480917
-0.0003297543471
-6.157744454e-05
-2.481886096e-05
-1.152511835e-05
-4.826163034e-06
-1.47575076e-06
2.28193472e-08
5.516106388e-07
5.961446528e-07
4.208499846e-07
2.148312731e-07
1.052139697e-06
1.293400147e-06
-1.321897461e-06
-1.314186928e-06
1.290565944e-06
1.27532351e-06
1.274678083e-06
1.275256915e-06
1.274285487e-06
1.274279223e-06
1.27759166e-06
7.794260285e-07
3.191174581e-07
1.288821572e-07
5.135317302e-08
2.018826696e-08
7.830319691e-09
2.996210296e-09
1.130884232e-09
4.209582249e-10
1.545046772e-10
5.590117239e-11
1.993254615e-11
7.002403991e-12
2.422989487e-12
8.25571878e-13
2.769077975e-13
9.140417813e-14
2.968288047e-14
9.480692164e-15
2.977913242e-15
9.197490252e-16
2.792587259e-16
8.332649456e-17
2.442917477e-17
7.036446998e-18
1.991051094e-18
5.533477641e-19
1.509482416e-19
4.031874659e-20
1.044186503e-20
2.530161246e-21
5.143306321e-22
6.749183393e-23
3.714058543e-24
0.0002236134242
-0.002093622249
-0.007745868966
-0.01057132351
-0.002360692603
-0.0001847678384
-5.252802181e-05
-2.190384755e-05
-8.431341445e-06
-2.255324391e-06
3.113964943e-07
1.139827179e-06
1.199504226e-06
9.536119684e-07
6.293959055e-07
3.204726035e-07
-7.735257653e-07
-1.315483581e-06
1.29179022e-06
1.283149733e-06
-1.325183404e-06
3.225528529e-07
-1.323421521e-06
1.282274664e-06
1.274279754e-06
1.274273978e-06
1.276746105e-06
9.187851487e-07
3.719015605e-07
1.484204636e-07
5.841477483e-08
2.267657058e-08
8.683205731e-09
3.279591428e-09
1.221680271e-09
4.487784692e-10
1.625410653e-10
5.803049603e-11
2.041767345e-11
7.07784082e-12
2.416707085e-12
8.125618494e-13
2.689519982e-13
8.761084746e-14
2.807881085e-14
8.851634956e-15
2.744166003e-15
8.365555916e-16
2.507295861e-16
7.386306399e-17
2.138171475e-17
6.080978259e-18
1.698683438e-18
4.656039162e-19
1.247886312e-19
3.227372963e-20
7.724114568e-21
1.526182091e-21
1.922464268e-22
1.026551692e-23
0.0001895760315
-0.001159121686
-0.006789326909
-0.01413543874
-0.01091830493
-0.0007467463801
-6.656735103e-05
-3.233738815e-05
-1.122044321e-05
-1.160132106e-06
2.361347288e-06
2.985985567e-06
2.580259499e-06
1.943129424e-06
1.332204417e-06
8.175866208e-07
3.965577459e-07
5.460133345e-07
1.27429873e-06
1.285148349e-06
-1.321987729e-06
1.29452047e-06
-1.312888752e-06
-1.318607386e-06
1.281983382e-06
1.274275309e-06
1.274270326e-06
1.27610496e-06
1.014510641e-06
4.067977453e-07
1.607250674e-07
6.259280972e-08
2.403252986e-08
9.098339235e-09
3.396472492e-09
1.25020672e-09
4.537136242e-10
1.62317581e-10
5.723399128e-11
1.988638764e-11
6.807237034e-12
2.295045818e-12
7.619111782e-13
2.489981535e-13
8.008572359e-14
2.534382013e-14
7.889239351e-15
2.415193202e-15
7.27056371e-16
2.151991059e-16
6.261641008e-17
1.790447251e-17
5.028086943e-18
1.38473531e-18
3.721391933e-19
9.599707772e-20
2.267545597e-20
4.358767883e-21
5.283501232e-22
2.744181813e-23
-0.0001783309466
-0.0006586972103
-0.006412641348
-0.01624661672
-0.02383318164
-0.005413745356
0.0002135313599
1.673567086e-05
3.270820245e-06
9.502488198e-06
1.040258363e-05
8.285273479e-06
5.860569536e-06
3.952411326e-06
2.600128842e-06
1.643120261e-06
9.546281272e-07
4.391013769e-07
4.783443715e-07
-1.273817378e-06
-1.304457241e-06
-1.320261047e-06
1.298100717e-06
-1.312697444e-06
-1.318415972e-06
1.281725578e-06
1.274271362e-06
1.27426674e-06
1.275708977e-06
1.060722164e-06
4.218361277e-07
1.651989241e-07
6.373431618e-08
2.423079169e-08
9.079635944e-09
3.353625378e-09
1.220988004e-09
4.381641787e-10
1.549695659e-10
5.401043026e-11
1.854616112e-11
6.273180229e-12
2.089694056e-12
6.853914932e-13
2.212865038e-13
7.031227673e-14
2.198230147e-14
6.760529593e-15
2.044858615e-15
6.082086637e-16
1.778680928e-16
5.112837903e-17
1.443499857e-17
3.994215815e-18
1.075803785e-18
2.76524757e-19
6.44316418e-20
1.20618512e-20
1.410595312e-21
7.14406106e-23
0.0005520223776
-0.0002755072401
-0.004769895633
-0.01831985141
-0.03442043178
-0.02347481535
0.002121906246
0.0003982659316
7.708272938e-05
4.564870492e-05
3.252905675e-05
2.110129313e-05
1.297337125e-05
7.876963385e-06
4.854932938e-06
3.020245871e-06
1.829695374e-06
1.022612269e-06
4.597661595e-07
-5.356855171e-07
-1.304290504e-06
-1.309875973e-06
2.400982782e-07
1.293058017e-06
-1.312529499e-06
-1.318307156e-06
1.281524496e-06
1.274268417e-06
1.27426383e-06
1.275562207e-06
1.058202506e-06
4.176274277e-07
1.622234012e-07
6.204931969e-08
2.337759598e-08
8.677525102e-09
3.173800569e-09
1.143858841e-09
4.062262006e-10
1.421467716e-10
4.900403932e-11
1.664139348e-11
5.565908371e-12
1.83311291e-12
5.943790878e-13
1.897019549e-13
5.958390431e-14
1.841409244e-14
5.598274023e-15
1.673982251e-15
4.922073816e-16
1.422552008e-16
4.037448449e-17
1.122023452e-17
3.026626053e-18
7.745253234e-19
1.779529023e-19
3.247410368e-20
3.672036855e-21
1.817269953e-22
0.004159042312
-0.00223392629
-0.002448045248
-0.0188129602
-0.04396957926
-0.05983924903
0.003657511776
0.002193366697
0.0003322739254
0.0001534597465
8.922267819e-05
5.066140962e-05
2.781041773e-05
1.530763484e-05
8.749257827e-06
5.253410755e-06
3.196574455e-06
1.883698455e-06
1.020765103e-06
4.474317512e-07
-6.79449384e-07
-1.304270162e-06
-1.315211424e-06
5.536797922e-07
1.292674292e-06
-1.312334795e-06
-1.318210113e-06
1.28134554e-06
1.274266323e-06
1.274261723e-06
1.275653756e-06
1.011443495e-06
3.963133426e-07
1.527808667e-07
5.797341516e-08
2.16602442e-08
7.970275382e-09
2.888832399e-09
1.031435868e-09
3.627756771e-10
1.256877914e-10
4.289154664e-11
1.441532061e-11
4.770796143e-12
1.554549461e-12
4.986486358e-13
1.574306608e-13
4.891204875e-14
1.495203519e-14
4.496390773e-15
1.329821448e-15
3.865729891e-16
1.103015656e-16
3.077408818e-17
8.308072656e-18
2.115196215e-18
4.791053417e-19
8.529181062e-20
9.337935861e-21
4.521235743e-22
0.06740701087
0.01083553706
-0.001108641891
-0.01996801474
-0.05909654776
-0.1057466048
-0.02013886997
0.01173130562
0.002060411895
0.0005864437755
0.0002514258103
0.000120352479
5.864907277e-05
2.960451946e-05
1.593151363e-05
9.138668726e-06
5.433711839e-06
3.231957869e-06
1.826366107e-06
9.527323848e-07
3.985046882e-07
-9.00864688e-07
-1.305368434e-06
-1.310642505e-06
-1.32062278e-06
1.297766701e-06
-1.311781013e-06
-1.318121039e-06
1.281153488e-06
1.274264194e-06
1.274259311e-06
1.275940063e-06
9.274230013e-07
3.610453549e-07
1.382376936e-07
5.207934464e-08
1.931185327e-08
7.050270864e-09
2.534428707e-09
8.971935167e-10
3.127794875e-10
1.073816316e-10
3.630262989e-11
1.2084439e-11
3.9604993e-12
1.277782433e-12
4.057813359e-13
1.268226072e-13
3.900380418e-14
1.180178464e-14
3.512144005e-15
1.027158587e-15
2.946731783e-16
8.252361568e-17
2.228692397e-17
5.642624457e-18
1.260120567e-18
2.190734943e-19
2.326433908e-20
1.103914858e-21
0.009235883361
0.001198770484
-0.00149586884
-0.02004435593
-0.08216505916
-0.1650445241
-0.09559020925
0.03888571152
0.006246849495
0.001903616354
0.0006621742762
0.0002646585169
0.0001136313072
5.258853689e-05
2.6770246e-05
1.487612324e-05
8.734108084e-06
5.225172569e-06
3.066156113e-06
1.669000093e-06
8.158994958e-07
2.922829341e-07
1.12984854e-06
1.285478169e-06
6.473381368e-07
-1.323959249e-06
4.251104662e-07
-1.30865382e-06
-1.318982823e-06
1.280043652e-06
1.27426401e-06
1.274256683e-06
1.27638004e-06
8.159296013e-07
3.159322748e-07
1.202682973e-07
4.503146294e-08
1.658955595e-08
6.014710512e-09
2.146498952e-09
7.541012754e-10
2.6081685e-10
8.880831286e-11
2.976964674e-11
9.823686762e-12
3.190996303e-12
1.020217619e-12
3.210193778e-13
9.940040806e-14
3.028220582e-14
9.07235886e-15
2.670269304e-15
7.703359535e-16
2.165331277e-16
5.848176272e-17
1.471959602e-17
3.241577966e-18
5.509344971e-19
5.685420086e-20
2.648778291e-21
-0.00204019294
-0.0004559953929
0.001108550668
-0.01695475617
-0.1142608108
-0.2540030946
-0.2349875879
0.05995781118
0.02501639374
0.005992064101
0.001653549763
0.0005529056914
0.0002093613825
8.889976553e-05
4.287412057e-05
2.30487885e-05
1.328500387e-05
7.932075559e-06
4.72213676e-06
2.674960292e-06
1.423552615e-06
6.247098299e-07
5.786696515e-08
-1.309642705e-06
-1.320538098e-06
1.290151998e-06
1.285983436e-06
-1.318694005e-06
1.287986095e-06
1.274274585e-06
1.274268246e-06
1.274261995e-06
1.274253915e-06
1.276920394e-06
6.893146396e-07
2.658143273e-07
1.007307914e-07
3.752863503e-08
1.3750868e-08
4.956531585e-09
1.757878666e-09
6.135080443e-10
2.107210197e-10
7.123123034e-11
2.36980825e-11
7.759443008e-12
2.500388652e-12
7.928994827e-13
2.474094762e-13
7.594690139e-14
2.292067942e-14
6.792778686e-15
1.971137723e-15
5.56134245e-16
1.501877202e-16
3.75753145e-17
8.161649961e-18
1.356827597e-18
1.361154329e-19
6.229639938e-21
-0.005749393011
-0.002228647856
-0.002098133329
-0.01827447089
-0.1825043092
-0.4147446449
-0.4113995377
0.0237825345
0.07132957349
0.01991999419
0.004408214945
0.001155194513
0.0003705989639
0.0001423286647
6.482002004e-05
3.376252376e-05
1.902482701e-05
1.129376232e-05
6.743786088e-06
3.833824738e-06
2.182063548e-06
1.129956177e-06
4.567708583e-07
-6.964920355e-07
1.288205597e-06
1.284996839e-06
-1.319674955e-06
-1.313222016e-06
1.281021842e-06
1.275216648e-06
1.275173695e-06
1.27426392e-06
1.274259735e-06
1.274252472e-06
1.277517565e-06
5.606001483e-07
2.155585203e-07
8.141142866e-08
3.021422168e-08
1.1023002e-08
3.954330612e-09
1.395160255e-09
4.84197813e-10
1.653176487e-10
5.553252452e-11
1.835388979e-11
5.968549833e-12
1.909669286e-12
6.010952103e-13
1.860923398e-13
5.662201931e-14
1.690697567e-14
4.936963179e-15
1.39837277e-15
3.776305076e-16
9.393182566e-17
2.013622684e-17
3.278634262e-18
3.203171537e-19
1.44264562e-20
-0.02331671895
-0.05933335548
-0.01649133347
-0.03165536349
-0.3616306629
-0.7281701328
-0.6357540054
-0.1512832296
0.2217289641
0.05881076618
0.01196101575
0.002384784191
0.0006151893481
0.0002093717382
8.940455559e-05
4.497008329e-05
2.471554701e-05
1.4624647e-05
8.348082246e-06
5.063533622e-06
3.000854023e-06
1.660478549e-06
7.855798496e-07
2.570790617e-07
-1.217547546e-06
-1.311697649e-06
-1.313541138e-06
1.289353974e-06
1.282246389e-06
-1.317880284e-06
-1.318297131e-06
1.280693836e-06
1.274261294e-06
1.27425743e-06
1.274668331e-06
1.127129804e-06
4.408370746e-07
1.691725982e-07
6.373463205e-08
2.358387841e-08
8.574566043e-09
3.064061254e-09
1.076405359e-09
3.718177713e-10
1.26306178e-10
4.2199433e-11
1.386767527e-11
4.482345264e-12
1.424855072e-12
4.453528454e-13
1.367414395e-13
4.116804763e-14
1.210307708e-14
3.442588455e-15
9.298214809e-16
2.30013754e-16