/*--------------------------------*- C++ -*----------------------------------*\
  =========                 |
  \\      /  F ield         | OpenFOAM: The Open Source CFD Toolbox
   \\    /   O peration     | Website:  https://openfoam.org
    \\  /    A nd           | Version:  10
     \\/     M anipulation  |
\*---------------------------------------------------------------------------*/
FoamFile
{
    format      ascii;
    class       volScalarField;
    location    "0.0250188088";
    object      ddt0(rho,K);
}
// * * * * * * * * * * * * * * * * * * * * * * * * * * * * * * * * * * * * * //

dimensions      [1 -1 -3 0 0 0 0];

internalField   nonuniform List<scalar> 
5170
(
-20811.4901
44817.98576
-21022.97704
-23880.43545
-164705.0217
-39877.75611
-39067.4902
-30201.46146
3094.786279
19007.98259
341.8559555
-1308.477553
7237.738053
36879.91888
-3728.04617
-1730.820216
-4634.506073
-85.31874022
-3997.219256
-2653.787704
-1160.588052
-2924.920394
-297.0578491
-31838.6545
-1126.812949
636.8375067
-320.9877517
2830.869118
-3728.129681
5048.177046
-1540.917488
-2873.939293
-5348.651225
-27854.38315
4838.435325
-4729.000373
-2803.28887
3558.279427
3615.80588
6309.674575
-177.5690204
-2235.463862
29890.86383
-9448.335811
3592.100254
4080.273147
12.29239464
16095.52798
673.0588277
8644.889221
-2919.72151
-1108.168529
-41634.77505
-4570.156952
-636.2222571
-7942.427248
-6083.067679
32394.53072
-7132.822104
4317.438882
-5183.964915
-5870.893146
-48059.14561
-6096.827863
-5771.648163
-2876.657036
-4327.072254
31321.16597
-4467.060625
7830.337971
-3582.163887
-5086.101061
-43277.71276
-4419.784995
-10770.43118
-5311.352578
-5043.367172
17301.29484
-6808.295822
10120.77951
-6110.151153
-4756.179708
-30663.47883
-6438.865852
-12526.44426
10294.20721
37009.42206
39220.33319
6204.983667
34494.31387
-72723.2145
-40138.09494
-16079.87256
-12622.04676
-72991.75105
-374290.221
-451282.1555
-246062.0117
-136096.7087
-386799.8119
-2304.355643
3309.148518
-831.8501563
3240.897384
-3302.240906
2862.411648
3272.62809
2512.49533
2226.609308
1222.117748
-1305.858335
-2467.318651
-1297.38737
-3183.336737
-1005.545596
-928.3844653
-2049.238081
-1983.979247
-2211.89089
-630.8987975
-102.3252191
-579.5696105
-224.0968639
-584.4811028
56.62028269
215.8041051
188.9370258
545.3182548
-51.41123272
134.9142148
51.36754488
7.137123515
340.5204392
-103.9005085
-51.18578973
-68.40319435
-105.9419665
-26.26989436
-87.82558333
-67.03991566
18.28125893
-59.06046738
-287.0518756
-26.07074998
29.01455054
-43.3445417
-96.61971427
-155.67554
-150.3243844
-55.40942288
-121.178313
-203.9921981
-274.5875533
-193.7711343
-145.169897
-118.4652155
-154.6373822
-72.6260992
-143.7460622
-80.32047339
-696.117954
-452.4557868
-269.110902
-70.0300477
6.151398253
-984.9117373
-2075.736698
-3227.87463
-2723.345666
-1470.025233
-309.3466254
-1970.767423
-3213.458867
-2897.618585
-1527.012441
8.131880232
-252.8879995
-123.5923574
-235.4889311
-124.7675365
713.214737
654.1627994
378.3646176
124.037159
229.2178909
-2550.45809
-4709.728912
-3203.274867
-3193.840141
-1323.219304
-8861.33832
-6698.198969
-1120.305827
-3871.863446
912.1994586
-43461.74563
-3434.602618
-18739.77615
-14637.08354
988.1548277
-356020.5773
-376367.4329
-510754.1725
-532025.7571
-575843.8094
-106719.0271
-85176.14441
-94824.44837
-93857.35515
-216399.0429
44384.5018
-4920.644994
-1934.067886
-122514.4425
-139234.2114
15257.13443
-19023.8165
-2004.42578
-138986.0228
-106684.2412
1568.607774
-1791.63166
-29814.79414
-130594.7922
-67551.53776
4484.045088
-106253.5193
-94675.09951
-98926.48754
-15854.97945
-5931.391684
-106268.3599
-67203.82217
-62835.29368
11956.44767
-36344.80588
-128437.3264
-69292.47998
-45047.95863
21613.05166
-77215.72832
70710.16398
-77019.70225
-25423.61783
25644.28498
-94482.38181
-73903.51998
-51656.42976
-8012.578125
26235.37318
-95711.76847
-65903.27267
-26115.03627
7264.271122
23558.32439
-37621.31439
-36377.8763
-11833.69694
10666.16425
25374.72861
-40452.09204
-36015.803
-16719.22659
-593.5337273
17777.44471
-21037.5692
-12567.82472
-7668.713281
3502.927565
3089.697768
-1166.454464
714.8387383
905.5582083
6071.707397
5037.239663
-1063.953412
1443.711487
7005.98852
7231.449253
12218.09587
11532.51652
12617.0826
12131.33079
10788.3085
8745.415053
8212.502295
10940.67873
11394.60605
12233.39084
8518.09651
-6455.382608
-3783.704966
-1209.6237
741.362954
3051.711836
-6675.873864
-2941.129144
-3301.511966
-2958.773386
-268.7131262
10097.15339
-778.1148082
-4085.538794
-7117.22021
-6976.950788
40485.52473
37191.30051
27753.56044
21657.35334
17333.48018
34900.56241
33072.46074
29620.58478
24966.98283
19247.63348
28029.77161
28298.18274
26886.31853
23901.87302
19066.66893
14317.60369
16698.47433
19755.77436
18650.54735
16219.52655
7826.778325
10055.05557
8624.106032
7605.084266
7287.570591
8837.473818
9036.488257
5251.979969
4212.231809
3551.052335
2023.158175
3721.339795
6682.521578
6979.988608
6898.689034
1331.88606
2332.519717
1937.492536
1419.661838
1503.072229
2140.1532
3404.847511
1640.326229
984.728409
1274.749079
1850.444031
1152.469178
830.9818227
1008.785418
1141.6216
2736.061209
1181.064452
875.7524532
866.8962479
1320.427813
2640.941524
2769.936052
2760.586311
1288.354946
1165.314204
919.0622504
712.2120336
793.3586245
779.0886347
792.0144352
573.1517478
742.4837575
554.3424702
605.8334804
980.1271263
579.3772713
408.2797312
501.4631091
553.2595721
661.6557355
270.8228943
274.2202154
289.2535011
292.982579
336.1141639
198.11676
332.0531161
209.4264695
225.9224855
464.8619843
229.5600238
137.3660266
195.4975434
233.6578522
316.9400595
82.75680987
83.28336697
77.72571084
83.55730935
64.53820255
55.59515383
43.92684892
45.67928938
42.28953631
39.09941533
45.90646516
126.9040101
32.33480439
35.8097251
143.1323416
115.7321119
25.41280028
61.52997175
102.8260671
167.9796297
38.56367859
23.49660312
22.47074861
14.05924067
25.24162311
36.03286368
25.77353891
24.71629547
24.44130288
27.38783055
42.88192898
35.66899719
33.70916457
33.31747475
36.17937243
60.89366508
106.759073
52.35626673
55.98176438
120.2121395
106.0040253
62.54619684
84.20028571
115.3588312
156.5198309
67.23804392
66.01513969
68.04389194
64.83359933
74.50755889
74.2650658
74.30627515
74.9861775
73.47975834
75.51629638
76.76838392
75.5828587
77.42397883
77.7810002
81.09266032
77.28208769
78.83766565
82.01646533
81.9740977
85.22435238
82.71503097
83.56731421
84.87098164
85.47869091
87.87615588
90.62876438
113.5119176
90.12997848
93.08546377
138.9041127
112.1696042
88.51880799
100.1332569
123.2600973
152.4069967
82.29690597
83.51710921
84.61333822
83.7310413
87.7344356
80.80247162
79.40083003
80.88396724
80.32915451
80.67944208
79.64566694
77.02951474
76.90658859
77.72577742
78.12657361
77.22345328
75.35311124
75.51309856
76.79355937
77.38258032
76.50685347
74.32668936
74.70964589
75.64496755
78.04084831
76.69129274
73.88981547
74.06849941
74.30358743
77.59885989
74.79408091
72.63397479
74.541292
74.92386209
76.11959962
73.58924214
87.09096053
74.02002442
78.36407879
102.5991685
438.4031119
456.0827436
458.654038
459.3445988
455.5167169
89.8974581
91.36695661
92.34185429
93.87512364
109.430597
70.83227294
69.30861889
72.45066325
73.62604806
74.20383842
60.94781378
69.27951043
63.35561852
67.15338899
73.85528514
61.24360458
61.5182
63.66313076
64.65726379
65.68397564
40.51854861
50.30493055
42.63944458
46.27391852
63.75317457
171.8774191
176.2313888
178.743127
177.7551215
177.6329403
-309378.2901
-289495.0986
-30734.20798
-14147.6102
20854.33304
46106.80237
55626.31737
51236.89183
44526.0042
37428.48131
28991.09364
25741.30317
17000.14922
9218.532842
10650.87837
12329.95982
6379.751406
8071.221391
-54.32057575
-2256.03355
-5453.397584
13412.13114
17745.9089
16911.54131
13940.36789
9271.734348
6932.954367
4802.647107
2162.791551
2107.669565
1850.109626
2110.696742
721.1757532
865.863156
1737.598087
424.2595695
435.1165345
875.1476706
162.3661851
86.868148
57.33003745
223.8787523
1.33138729
-22.95844871
7.787442359
41.54695337
286.2217556
77.78512278
47.00447928
76.27567997
79.28685641
76.63865604
97.54093665
215.1760089
105.8521036
87.70868675
91.49809702
87.29674516
86.58650573
77.16949485
73.93297927
79.51894852
178.1828904
453.0398629
98.88904436
73.6502065
73.22044435
63.58289019
69.28719902
176.4471902
-142812.0101
-135542.2696
-208530.1734
-56261.43674
-15442.784
-4411.35062
-25625.1164
-94258.09603
-49081.21234
-12487.57477
49513.52789
8095.606136
-23975.07456
-43238.8015
-20172.53358
88888.14773
86853.50701
7145.315044
-33960.68069
-23798.31332
107732.2745
96571.21439
19228.26749
-20399.56104
-19646.75824
106458.6361
88724.55853
24623.73447
-9976.252696
-15953.718
95033.74281
73755.71758
23540.83799
-3477.838708
-10516.71087
76970.84172
58102.53693
22314.91426
225.1264006
-5895.360604
60672.89708
46126.62511
19181.06079
2687.57094
-4230.654827
47203.50374
36295.40391
16930.79127
3162.188719
-3236.058941
34717.0509
27637.29496
14390.28212
3946.439594
-282.5405518
26945.54085
21600.69497
12073.7464
5451.788994
804.7536086
19145.87506
16659.36832
11425.92349
3349.413132
48.65237442
13196.51948
15630.53976
6103.29407
4009.112552
4194.100286
15586.11275
10983.49952
2609.853859
4626.813188
3223.864532
10566.4952
5144.406072
8922.908483
823.0937072
-79.61286957
6784.279446
6670.444039
7453.114219
5787.026897
3406.405156
8558.964854
10070.10133
7588.418587
9967.736857
3969.681983
7502.392401
10867.38812
12597.14249
17943.66571
15133.5534
-550.3038799
-2966.20065
-4746.663545
-13209.09086
-11257.09547
-10225.29463
-13535.55822
-14497.62159
-20994.92429
-20335.46881
5275.246906
-2200.530994
-4025.122889
-7333.446853
-10642.3999
11105.99142
10755.93311
3864.00787
187.4316295
-3847.121673
15888.32818
7420.291484
3841.766465
2288.396759
-962.147142
9867.36218
7225.905433
6234.945098
2498.576025
1373.295517
7618.043599
5607.365461
4089.036104
2466.585657
2769.673049
7627.910919
4148.381927
3276.520445
2338.446437
1510.59398
2717.040092
2265.89472
2580.802055
2350.617776
1829.206261
1579.174538
1294.696731
1865.322285
1659.297012
1422.804235
1250.939583
1459.00494
1767.399685
1193.650606
701.1803646
1093.523643
1366.207017
1222.197643
728.7955608
854.6989437
2798.883456
952.3020097
834.1162077
1011.648292
925.0775656
1389.679377
816.662481
1041.862678
938.7253915
593.5309798
691.4031151
1040.739309
940.9689269
584.2599711
476.1567207
925.8851723
523.3829346
490.5900344
439.6461374
706.2702212
465.4975538
411.4589418
375.5525739
731.8723073
663.3998154
309.2411036
500.5629529
1482.255253
443.2462938
240.856394
1357.924889
374.844299
192.192469
154.970321
153.1478598
545.8561748
154.0491583
99.04498078
97.53409839
103.8454134
51.83318573
57.11882159
62.67459335
80.47571659
326.9216
46.473391
61.01544009
345.1419024
293.2913757
40.93939298
327.1492808
264.6898632
25.43066755
4.57490337
-1.956194541
317.56595
49.74016622
-4.741056159
-16.11921666
-7.082816222
3.041102032
-0.7791607244
-1.078420981
3.101063746
12.10778471
14.31184642
13.20695225
15.58775457
26.82450866
238.2186344
28.41947015
26.39428838
46.78525743
263.1394267
247.8047563
68.77668594
294.8532464
251.4822276
55.45810826
36.97002987
270.4997666
91.94032318
52.66059301
50.46665023
47.48203635
63.73129741
63.68586669
61.73467625
61.12746427
59.24656047
71.67893465
73.00049412
75.36135231
73.39483099
73.3706638
77.41249348
78.73297212
82.63826513
80.56073613
81.39649089
82.69497346
84.62585247
85.37779386
83.56608442
91.85516663
91.10175543
90.98524793
110.5348504
295.6125122
269.9302193
150.5895916
703.2632403
231.4556547
105.3342593
92.57505226
224.4596722
112.4683379
91.78068633
90.98965685
90.04241395
85.28957467
87.31599255
87.51848042
87.69474798
87.84943637
81.21018418
83.80284787
85.29079277
85.65717955
85.03311305
78.22370548
81.6377183
83.36090022
83.35515195
83.01791341
76.42592855
78.41888593
79.75204074
79.34160161
78.91390273
74.74647192
75.98490789
77.18777051
77.69756408
79.93063102
74.89357188
75.83474871
77.08258127
80.11836292
84.10835844
76.42551482
82.37609917
83.2450863
90.01943616
142.6990303
82.15047968
139.733703
468.2085228
475.0587287
471.3178694
461.0213985
457.1977169
133.4116704
80.44240855
78.49525173
150.9825091
97.55922788
93.70395051
77.78559398
80.83244204
74.18810972
75.83160583
75.48560629
75.36607663
77.10563541
69.85113261
68.41018841
68.49956226
70.69085599
75.12494468
65.70269814
67.85577173
68.59430895
69.02815246
69.6756114
58.55291497
50.32222283
51.0002001
53.96670983
58.62739129
178.618528
182.3290954
183.3763237
184.6475682
187.2372672
-3783.779032
-462.3538005
259.019559
168.7168683
-78.961131
54.53979572
-127.6372016
55.69890265
32.24499451
-15.25308968
4.885992782
8.012569071
-6.249195007
0.1612526842
0.1069949375
1.225027159
5.989568791
5.081036016
3.417356526
1.793408511
1.604199389
3.38830061
2.638094878
0.1666501944
-0.2521147037
0.7803117697
1.389391081
1.546325547
1.120371391
0.6931831941
0.3452438054
-0.07106533111
-0.2122424507
-0.2605975181
-0.4611741411
-0.6984478297
-1.054817794
-1.33348281
-1.380225843
-1.587276809
-1.704049803
-1.828433677
-2.00429289
-1.753162609
-2.520326933
-0.5211876681
0.4833255597
-1.554246608
-1.433017261
-1.297798429
-1.113569111
-0.9397039849
-0.7870198744
-0.6148676724
-0.4573600312
-0.321943732
-0.2180376072
-0.3046257057
-0.02428807896
-0.1966889712
-4817.224229
65.18562766
-21.30562973
-27.0865346
-120.6572755
5.749941564
3.378248548
-25.63006725
35.84814834
42.22492237
5.853195462
-4.398135281
14.7769725
23.20332635
10.33203804
5.382666706
7.794486119
9.145892266
11.84346412
10.88177926
8.761289787
7.765917985
5.639950758
5.368248112
5.476165243
5.255641499
4.713562009
3.842811242
2.632286858
1.770748165
1.281836234
0.4620039002
-0.3854959542
-1.087715639
-1.828512173
-2.5999033
-3.210954853
-3.844291447
-4.388306629
-4.83512568
-5.249661258
-5.484985882
-5.712192405
-5.822293076
-5.675270254
-5.466388799
-5.199339113
-4.852614001
-4.416651086
-3.933013779
-3.419473018
-2.876749545
-2.340569005
-1.79767799
-1.311097056
-0.8786472672
-0.5457061217
-0.4727094337
-0.07014513401
-0.1918157342
-4337.132766
1014.416265
33.98014929
28.52642559
-336.9159502
202.8505279
9.365194628
29.0650335
43.58502763
19.65137587
13.94869499
22.41684939
18.48196722
12.5400879
12.82110992
15.60438105
16.60643145
16.31825285
16.37755282
15.47078387
13.31032306
11.9805686
11.66033407
10.87640206
9.749687769
8.044581171
6.896463865
6.237034238
5.014241641
3.750642946
2.379793053
0.7710244649
-0.4329619703
-1.455234087
-2.732179496
-4.025281968
-5.123256616
-6.06961733
-6.895343705
-7.683529927
-8.291446263
-8.681643358
-9.000588513
-9.106939919
-8.979034953
-8.748115863
-8.342573411
-7.770515118
-7.110259632
-6.332520076
-5.467573247
-4.585683896
-3.723272731
-2.856624978
-2.037741375
-1.304115689
-0.7084789029
-0.3112058777
0.1780002268
-0.3327724485
-9230.158564
-32.20842976
134.9843948
-53.9833653
21.21696886
88.47558244
39.10007624
8.200853226
20.02782688
37.00920343
23.31620331
7.01276325
9.62044935
21.05985259
24.22326568
18.76570162
16.02149267
18.73820823
21.27673667
19.80956915
16.28850676
14.33549716
14.36676228
14.16299242
12.45367098
10.44910525
9.027074383
7.935844491
6.795392756
5.110107646
2.900843483
1.111086053
-0.2447743255
-1.692762785
-3.400621658
-5.176061099
-6.744615013
-7.942127649
-9.078103431
-10.15769282
-10.9174393
-11.50005207
-11.92964929
-12.06276164
-11.93203875
-11.62805095
-11.11453283
-10.35561963
-9.475754615
-8.465270841
-7.344192573
-6.156532745
-4.967563818
-3.797477912
-2.698832638
-1.716699827
-0.8527356457
-0.2090150049
0.5510115273
0.522936247
-11988.97045
37.60108555
-15.32016455
-33.02512626
-156.9429625
226.477434
54.26805675
1.951195907
24.67242729
38.67073694
21.27797293
10.51544937
16.54546812
23.97001491
23.5589467
20.44846906
20.49888116
22.32191946
22.74460797
21.00454886
18.71942189
17.50601651
17.06618232
16.30596807
14.80930422
13.09369017
11.50954868
9.950757911
8.190795705
6.157410873
4.073064869
1.492000663
0.1155807601
-1.908635303
-3.945241203
-5.857335428
-7.648887786
-9.301846165
-10.78831539
-11.97972176
-12.96553806
-13.7348844
-14.29379522
-14.49732106
-14.35152874
-14.01589673
-13.40615866
-12.51562697
-11.46079392
-10.2339074
-8.883990363
-7.461455739
-6.040413359
-4.635982822
-3.306825829
-2.081490967
-1.074434108
-0.2282251847
0.6233541931
0.8940115062
-13342.2853
-460.4705662
-269.7466229
-5.191191437
-126.0821676
131.0854784
4.947338184
-3.770924333
24.42701661
32.93654534
18.41918679
10.15184573
14.43982437
20.36381654
20.75441873
19.30987854
19.78649244
21.51237418
21.98544378
20.96104285
19.55904875
18.64106498
18.09044356
17.30170592
16.14689708
14.63666393
13.04923262
11.37079745
9.528184398
7.451804539
5.303386222
3.106119445
0.8635028272
-1.408209021
-3.672775075
-5.824609386
-7.861188626
-9.757958783
-11.46422196
-12.92636864
-14.13439908
-15.05998676
-15.67684276
-15.97737772
-15.97614983
-15.64796638
-14.99846615
-14.06188436
-12.94482944
-11.60859189
-10.09979074
-8.568581678
-6.990776567
-5.383395384
-3.832459816
-2.397688548
-1.256704468
-0.4632810414
0.3027935306
0.6233987912
-10263.43108
-6180.075047
-413.5627746
-66.98171189
12.58572945
103.5469088
6.609602878
3.141364699
18.57773715
23.95279089
12.4658419
6.689485464
11.34363991
16.77107867
17.63906993
16.74365601
16.92303608
18.12863324
18.83731122
18.79549005
18.13522887
17.58469077
17.34759331
16.8971556
16.12977832
14.98289246
13.65710573
12.168514
10.47227794
8.574927319
6.487784165
4.25744897
1.995998512
-0.3722823034
-2.744734208
-5.073225034
-7.329185525
-9.440195984
-11.38201517
-13.08562948
-14.51043978
-15.62191404
-16.40970238
-16.87659581
-16.94210216
-16.6514988
-16.05261487
-15.1906052
-14.10823251
-12.53199789
-10.92034593
-9.25135017
-7.598976283
-5.939713658
-4.394987951
-2.992780386
-1.776887706
-0.9747791951
-0.2573121674
-0.03565362973
-8853.160142
-6316.068038
-482.9656806
-52.46808283
-98.47035559
82.25387963
-5.375562827
-39.13589594
5.371215538
11.16190324
0.06656798601
-6.076699018
2.675519677
10.32657553
10.83002056
10.55820076
11.01863362
12.1874964
13.31851848
13.70259341
13.62115185
13.87791938
14.21952134
14.53121097
14.42555206
13.86661822
12.99375217
11.98740888
10.72432545
9.174930526
7.360445581
5.341308985
3.192651299
0.8234018169
-1.547594728
-3.951141462
-6.315589882
-8.576766038
-10.69479171
-12.53266162
-14.14064567
-15.30084634
-16.26388289
-17.14691328
-17.14550415
-16.84940019
-16.28681826
-15.42607179
-14.30240129
-12.95040001
-11.43523476
-9.784976541
-8.118513617
-6.502715541
-5.062168928
-3.785142812
-2.616554626
-1.671514461
-0.901148983
-0.7258580209
-6670.922537
-6005.147699
-3010.884252
-244.1132873
-178.0823298
118.6410778
-28.6643942
-69.8769868
7.900299028
22.53220073
-4.56344453
-13.33232724
-3.37968931
-1.057900191
0.2220807867
0.3113022973
1.842814982
4.336797268
6.258425371
6.808754987
7.473237082
8.180104148
9.075571616
9.985699186
10.52542516
10.7011624
10.60801185
10.23656248
9.555145727
8.558214561
7.167157331
5.559380662
3.65949077
1.53743364
-0.6988328637
-3.03782381
-5.327473211
-7.571857134
-9.658231842
-11.528024
-13.11953405
-14.4128971
-15.38579923
-15.99718001
-16.2659665
-16.20748958
-15.81940953
-15.08878094
-14.03973828
-13.04170676
-11.72570412
-10.26190249
-8.717949573
-7.214862428
-5.802655839
-4.513315874
-3.379030371
-2.491965355
-1.719513442
-1.551522538
-4827.040513
-5512.602812
-4942.307404
-397.4286294
-139.3842696
62.22501969
22.10163372
-79.60077622
-27.83128696
-9.883079235
-25.91776249
-34.52648636
-23.449746
-16.37945994
-11.84258856
-9.334319477
-5.73400254
-1.679567877
-3.907923914
-2.18814677
-0.5184285476
0.6971759138
2.409472076
3.987480318
5.109230332
5.906903361
6.608341264
6.920324926
6.819226724
6.412169657
5.592234435
4.512562818
3.089701585
1.466943596
-0.3795292527
-2.354395383
-4.356731414
-6.326433903
-8.186361576
-9.952667986
-11.44890334
-12.84268155
-13.81371601
-14.20843863
-14.81004362
-15.04628143
-14.92892818
-14.47438779
-13.7470145
-12.83494521
-11.71493073
-10.44652279
-9.116940419
-7.767069019
-6.479431523
-5.283155438
-4.238587014
-3.431007481
-2.712497654
-2.56121674
-3480.975795
-3475.424902
-4025.053077
-2775.327297
-407.1856188
39.11415827
-18.25861784
-96.58416263
-56.4578694
-24.45613145
-42.70415104
-48.37750948
-37.64937962
-32.93262126
-29.65943378
-28.27430269
-26.50492834
-23.8402516
-18.04308607
-13.22374958
-8.204311949
-5.286794722
-6.522257697
-3.737209835
-1.695439862
-0.03245777255
1.438292777
2.466656314
3.117325299
3.337252767
3.271553203
2.862283222
2.062609779
0.9711464248
-0.2679972617
-1.734789714
-3.3392953
-4.969983902
-6.576505514
-8.169880576
-9.639277195
-10.94107978
-12.02583139
-12.87304179
-13.47596603
-13.80748334
-13.86558706
-13.62911104
-13.14264273
-12.46126763
-11.58043762
-10.55175875
-9.435921665
-8.287937462
-7.176435585
-6.136897135
-5.215929056
-4.513398115
-3.867650041
-3.737538751
-1871.487537
-2250.529042
-2026.32458
-2783.184694
-1442.263334
-209.551022
-89.24651538
-66.01629051
-73.83589197
-58.02440661
-63.01778013
-64.35060555
-57.05571132
-52.32921853
-48.73679425
-45.91345657
-42.4600969
-38.19753175
-33.88209881
-29.04662282
-25.59087114
-22.52311627
-17.69153959
-13.95807506
-10.05528106
-7.631508079
-5.158609713
-3.080223328
-1.422229837
-0.2657949151
0.497116783
0.8263733181
0.801582745
0.3581501816
-0.2963709857
-1.231925472
-2.430108219
-3.757947717
-5.141038845
-6.555410126
-7.959950619
-9.210276485
-10.3271206
-11.29111301
-11.99506312
-12.45605657
-12.69341124
-12.67304284
-12.4145378
-11.97085451
-11.34539211
-10.57646379
-9.712349675
-8.798016011
-7.897705642
-7.04350462
-6.271220596
-5.690838461
-5.122846593
-5.015283036
-1498.247653
-2174.614891
-1168.130164
-2999.869387
-1952.216476
-87.66797817
-66.36162513
-97.07180885
-58.21958609
-82.85527494
-90.50456624
-87.91612623
-78.00616509
-71.7454951
-66.89034803
-63.00337151
-59.01144142
-54.16266886
-50.31129407
-44.72345273
-39.88710445
-34.80844883
-29.7207889
-24.8172078
-20.26943589
-16.24096088
-12.64066902
-9.454157067
-6.759090544
-4.574248213
-2.922289058
-1.750864624
-1.020222817
-0.7408210214
-0.8309370126
-1.259799362
-1.996216463
-2.936527171
-4.045038632
-5.23898964
-6.484559146
-7.653828309
-8.759614397
-9.723484883
-10.52512355
-11.1009484
-11.51335039
-11.67748004
-11.65581438
-11.44402308
-11.07274759
-10.55826916
-9.95866228
-9.287142383
-8.615555226
-7.960875631
-7.359011007
-6.918067804
-6.456149057
-6.364363642
1404.297052
-1776.057625
-663.1884301
-145.6718494
-2679.286888
-1195.673539
-173.2731859
-136.0275869
-110.4557986
-103.3124591
-116.6716612
-114.5027904
-105.163125
-94.57330162
-87.59767345
-83.52528599
-78.75448567
-72.97617944
-66.67609054
-60.07875958
-54.17159513
-48.39557774
-41.84127922
-35.65855777
-30.04351978
-24.86814722
-20.20754974
-15.9743549
-12.2895595
-9.186314558
-6.681353615
-4.725772037
-3.294743404
-2.358226192
-1.879645816
-1.803850011
-2.079654438
-2.637129111
-3.426514306
-4.363138402
-5.391997511
-6.447863188
-7.466591947
-8.413621767
-9.23289852
-9.898246109
-10.418632
-10.75677186
-10.92467966
-10.92728393
-10.79654689
-10.53151384
-10.18139824
-9.756622521
-9.317768599
-8.871275973
-8.45074596
-8.152984281
-7.82194164
-7.759844852
791.598994
-2864.428553
-1577.635301
-70.07375197
-1817.011686
-552.8278634
-724.7477106
-334.7211227
-171.550126
-128.3487565
-153.3282686
-152.7523131
-135.6161939
-121.2820795
-111.4794612
-104.9669922
-98.03386292
-91.68340472
-81.29869397
-74.31707703
-66.72654556
-59.4095054
-52.05660329
-44.99480692
-38.40706227
-32.29416794
-26.73367207
-21.69617168
-17.24032933
-13.41723537
-10.23764702
-7.664868514
-5.67627399
-4.218073023
-3.263971223
-2.754997181
-2.633209984
-2.840320544
-3.313077823
-3.988424199
-4.791827138
-5.673560492
-6.575690442
-7.445114657
-8.246598278
-8.944968661
-9.532166979
-9.979536288
-10.2960339
-10.47975786
-10.54746362
-10.50454084
-10.38620527
-10.19151087
-9.969184791
-9.723707594
-9.478065453
-9.31925918
-9.09208134
-9.085141253
-979.4371876
-2613.603242
-4189.935591
-831.2675708
-1218.335773
-1403.418935
-1133.611287
-315.252677
-215.8061031
-171.4817881
-139.7839092
-172.7111362
-166.37429
-145.6077832
-132.3069113
-123.8953875
-115.1340324
-104.3970001
-93.78519485
-85.7807026
-76.55367122
-67.81645659
-59.59028577
-51.65777712
-44.2022376
-37.43632777
-31.31717583
-25.79999415
-20.86960906
-16.62921133
-13.06416367
-10.1189877
-7.793319086
-6.017084873
-4.749517907
-3.944507035
-3.531007493
-3.456787238
-3.665649943
-4.092735964
-4.677052315
-5.369631348
-6.114394291
-6.873151042
-7.6026432
-8.279293493
-8.880266612
-9.386804098
-9.803569931
-10.11967167
-10.35583557
-10.49159589
-10.56844297
-10.57512206
-10.54967792
-10.48612137
-10.40373598
-10.3717629
-10.24405313
-10.27521433
1344.271126
411.9578481
-2445.065708
-590.710405
-1635.655159
-2492.859195
-1183.168251
-786.91349
-317.0871691
-216.6502415
-213.3431426
-181.2230703
-197.4316718
-183.198739
-158.8133732
-141.3114635
-126.676368
-112.0932931
-101.5305001
-89.89245041
-79.83631436
-70.64552178
-61.76383092
-53.38491618
-45.71225611
-38.8479865
-32.72738574
-27.22906234
-22.35464439
-18.14369728
-14.60461105
-11.66550648
-9.305760699
-7.477567635
-6.123785244
-5.193494028
-4.632433025
-4.381094144
-4.392533015
-4.619687543
-5.00023819
-5.498751498
-6.070171963
-6.68233615
-7.300729377
-7.903695388
-8.471749718
-8.986996227
-9.451260193
-9.848081234
-10.19491928
-10.47378352
-10.70887622
-10.88083447
-11.02271527
-11.11634706
-11.17685213
-11.26124459
-11.21958297
-11.26072148
3339.494821
-490.7920373
742.3593514
-1688.716883
-2491.643312
-3190.469921
-1976.497985
-876.9195912
-524.2404129
-280.2040091
-234.1547158
-222.5867062
-187.8464274
-185.8555093
-164.0296827
-138.4373441
-120.3339758
-106.3770654
-93.8903522
-82.69530986
-73.03994333
-64.31432502
-56.13890501
-48.54233163
-41.65797995
-35.57532448
-30.22232236
-25.44486544
-21.24324996
-17.63320517
-14.59217406
-12.06570896
-10.0226928
-8.431754652
-7.225049697
-6.362117651
-5.79896524
-5.487773935
-5.387541932
-5.460567574
-5.671800837
-5.984262475
-6.376662241
-6.820785602
-7.294195794
-7.783357763
-8.27148772
-8.749506845
-9.213338353
-9.649285999
-10.06518735
-10.439053
-10.7903141
-11.09111298
-11.3721944
-11.59570574
-11.77270015
-11.95383559
-11.97756342
-12.05060082
9498.60549
8252.916459
2368.205156
-2929.072602
-3198.477952
-2458.809502
-1143.421976
-661.2982247
-783.4996926
-236.7595582
-193.2571655
-171.0127582
-158.6454257
-128.5134963
-125.8793753
-110.6769754
-94.14281776
-80.76815935
-70.34309095
-61.74398643
-54.52976225
-48.30285075
-42.51053665
-37.0851924
-32.16279071
-27.86247872
-24.10803232
-20.76906788
-17.83588662
-15.32152841
-13.21254346
-11.46664581
-10.04255979
-8.922383477
-8.067428736
-7.422508764
-6.978213998
-6.701574002
-6.548871955
-6.516144792
-6.575907028
-6.715321063
-6.921990664
-7.183831153
-7.491015339
-7.838804197
-8.217811816
-8.621085808
-9.045058779
-9.47999254
-9.925381662
-10.35870852
-10.79277786
-11.19177457
-11.57513691
-11.90174512
-12.1774524
-12.43718529
-12.52183695
-12.60529619
-959.6273784
-3542.681287
-7405.982004
-6014.765621
-3405.277644
-1550.259913
-899.7091642
-120.7264574
-38.39515083
-63.08061055
-78.41634684
-81.94357716
-68.19672111
-52.73946548
-54.62891987
-56.57282345
-50.93945569
-43.26566289
-36.93886964
-32.50649613
-29.38460817
-26.7981987
-24.3214894
-21.90425586
-19.60932202
-17.65870314
-15.99831724
-14.52168478
-13.20936911
-12.08006824
-11.14036454
-10.36897218
-9.723073875
-9.199178974
-8.778686031
-8.446409773
-8.175139565
-7.963772275
-7.80197094
-7.67529749
-7.600056324
-7.570810925
-7.588647837
-7.663261941
-7.793390559
-7.983857682
-8.234512797
-8.540807451
-8.902579947
-9.307783807
-9.756376092
-10.22080637
-10.70913015
-11.1755498
-11.63702682
-12.04430637
-12.39261616
-12.71645099
-12.86127626
-12.94661935
-19537.39983
-13929.39226
-7672.278306
-4355.565299
-1988.380684
-616.8049656
-253.7476203
373.930222
216.9874674
233.5901496
67.12651385
45.61199855
10.41723327
18.95516702
26.14784993
2.349245588
-2.21451973
-2.864152147
-2.73711281
-3.059831149
-4.159099208
-5.610850867
-6.678892083
-7.281316795
-7.576088482
-7.97319245
-8.358486671
-8.708623039
-8.940425606
-9.138491761
-9.322612004
-9.4621896
-9.562414057
-9.599984537
-9.584447712
-9.528650109
-9.417126732
-9.250629572
-9.052425385
-8.838142734
-8.617746542
-8.415550429
-8.247624656
-8.134842939
-8.090830435
-8.121357801
-8.240780468
-8.44390307
-8.736672234
-9.099515525
-9.534573457
-10.01227862
-10.53182906
-11.04832562
-11.56584012
-12.03394987
-12.43895149
-12.80992447
-12.97970757
-13.09295966
-13032.76635
-8704.820934
-4698.973024
-3305.571337
-1665.875409
-152.2492151
26.07751134
-130.1707756
174.4053275
156.4851445
160.2498952
26.47534025
64.32914651
35.5569252
36.61875998
45.53135245
25.06917433
19.34613609
17.48782856
15.34346249
12.53400036
9.24969078
5.840705149
3.236877248
1.048235676
-1.023592387
-2.988189844
-4.725786167
-6.225385445
-7.441534123
-8.477392211
-9.30930333
-9.946149842
-10.38037028
-10.63222097
-10.72872314
-10.67951871
-10.49628461
-10.21938662
-9.878390276
-9.504271452
-9.129016337
-8.777809613
-8.48954089
-8.281733443
-8.170344519
-8.169921211
-8.282455256
-8.507773882
-8.830588101
-9.251104033
-9.734326788
-10.27502343
-10.82619677
-11.3833268
-11.90002659
-12.34353176
-12.75336387
-12.93473404
-13.05696912
-4368.813788
-3314.255023
-1890.873536
-723.1854268
13.75166222
380.0047619
-19.4463774
155.9923369
282.0828575
203.8416685
234.7777001
66.79354827
31.26276225
84.14028351
51.04050279
44.75200292
49.14156562
31.30045374
25.44555304
22.34954343
19.1061352
15.2840062
10.98382302
7.421530464
4.21129553
0.9338566138
-1.416572031
-3.769211039
-5.833141684
-7.581167602
-9.010952163
-10.15922424
-11.0176498
-11.58884455
-11.90480123
-11.99188466
-11.8792845
-11.59428461
-11.18000212
-10.68252884
-10.13961757
-9.593170613
-9.082156771
-8.643219035
-8.299229936
-8.078463587
-7.988097067
-8.032281717
-8.21117475
-8.510185694
-8.922204382
-9.413854004
-9.969380348
-10.5482675
-11.12916925
-11.67985313
-12.1406926
-12.57585051