/*--------------------------------*- C++ -*----------------------------------*\
  =========                 |
  \\      /  F ield         | OpenFOAM: The Open Source CFD Toolbox
   \\    /   O peration     | Website:  https://openfoam.org
    \\  /    A nd           | Version:  10
     \\/     M anipulation  |
\*---------------------------------------------------------------------------*/
FoamFile
{
    format      ascii;
    class       volScalarField;
    location    "0.0250188088";
    object      ddt0(rho,H);
}
// * * * * * * * * * * * * * * * * * * * * * * * * * * * * * * * * * * * * * //

dimensions      [1 -3 -1 0 0 0 0];

internalField   nonuniform List<scalar> 
5170
(
1.507534571e-55
1.194984535e-55
7.108658872e-56
3.412163719e-56
2.191773283e-56
5.178103347e-53
4.050558819e-53
2.348879841e-53
1.267688514e-53
1.885026613e-53
1.796165098e-50
1.391059161e-50
8.028811897e-51
5.639877569e-51
1.511033167e-50
6.344146786e-48
4.895144718e-48
2.909033778e-48
2.879021553e-48
1.110758319e-47
2.287948455e-45
1.775179131e-45
1.130313923e-45
1.585723732e-45
7.605883191e-45
8.435690836e-43
6.667497899e-43
4.730502873e-43
9.086788301e-43
4.938223507e-42
3.185680879e-40
2.604977336e-40
2.126049816e-40
5.322140752e-40
3.085959751e-39
1.232655889e-37
1.061153559e-37
1.019455477e-37
3.156222019e-37
1.877529942e-36
4.889909484e-35
4.510761239e-35
5.172296195e-35
1.893911431e-34
1.121117502e-33
1.985632164e-32
1.998557412e-32
2.762083329e-32
1.150742025e-31
6.608152275e-31
8.239181973e-30
9.19881348e-30
1.537280811e-29
7.087112892e-29
3.8613015e-28
3.478832666e-27
4.375483525e-27
8.870406904e-27
4.419241722e-26
2.24082754e-25
1.487597657e-24
2.135504704e-24
5.23543772e-24
2.780310547e-23
1.29437546e-22
6.39764693e-22
1.058528079e-21
3.125843495e-21
1.753110963e-20
7.450866406e-20
2.742584676e-19
5.278234319e-19
1.861404153e-18
1.095146372e-17
4.279530727e-17
1.161038563e-16
2.61484234e-16
1.092923329e-15
6.704614424e-15
2.452633e-14
4.769086001e-14
1.267596837e-13
6.206146177e-13
3.954794433e-12
1.404573622e-11
1.875246589e-11
6.001789878e-11
3.382918275e-10
2.217186114e-09
8.038354936e-09
6.697495681e-09
2.661533632e-08
5.905186756e-08
5.799861988e-08
5.136366212e-08
6.435946571e-08
2.171617384e-09
5.666431107e-08
-1.010253424e-07
-9.75771095e-08
-2.637626608e-06
-1.156751045e-06
-1.583754605e-06
-4.011261784e-06
-4.750958534e-06
-0.0001100532203
-1.265859032e-05
-8.393263158e-06
-4.007508549e-05
0.0001640590367
-2.153907223e-05
2.589056406e-06
3.914686673e-06
-8.567528114e-07
9.616952105e-06
-8.555071034e-06
-1.934282087e-06
-1.285883664e-07
-1.22236663e-06
-9.50008311e-07
1.018701589e-05
2.819537329e-06
1.066934562e-05
-1.292890004e-05
-2.844137399e-06
7.185232738e-06
4.43779032e-06
2.693838019e-06
-7.941614665e-06
-8.078126379e-06
-3.208555234e-06
3.045575705e-06
7.026690967e-06
-6.148688619e-06
-1.408194325e-05
-9.138842148e-06
-2.17545977e-06
1.639265301e-06
-6.912455955e-06
-2.153613342e-06
-6.761684115e-06
-1.08153529e-05
-7.184140271e-06
-3.463228634e-07
-2.573276937e-06
-4.551019888e-06
-5.718124623e-06
-2.187631435e-06
-1.097869604e-07
9.251127559e-07
1.423268415e-06
-4.839605735e-06
-2.768155909e-06
-1.711611353e-06
-1.156388635e-06
6.03663676e-07
6.109940875e-06
-3.515401489e-06
8.435590558e-08
-1.832936964e-06
-8.983545171e-07
4.863305078e-07
-1.120671358e-07
-2.286428651e-06
-2.122351624e-06
-1.398973333e-06
-1.351197647e-06
-1.966334354e-06
-2.918595935e-06
-2.227231755e-06
-1.503094913e-06
-2.19358142e-06
-2.216082395e-06
-2.056207571e-06
-3.266336778e-06
-2.571247361e-06
-1.894064364e-06
-1.785121209e-06
-1.346091192e-06
-2.987684754e-06
-2.786085703e-06
-1.629950475e-06
-1.551686023e-06
-3.009848042e-06
-1.841428631e-06
-2.812634304e-06
-3.286679504e-06
-3.187077197e-06
-2.690881048e-06
-9.395048148e-06
-1.724745885e-06
-3.164200335e-06
-3.17348823e-06
-1.528689691e-06
1.232087786e-05
-1.793062127e-05
-1.583090478e-06
-2.719463938e-06
1.258239436e-06
1.372732997e-05
9.11852068e-09
-1.072345809e-07
-1.033940193e-07
1.364623328e-08
-2.363857519e-06
-4.753118574e-08
-9.119684891e-08
-8.230647086e-08
8.008940436e-08
2.030028142e-06
-1.319061776e-07
-6.30718606e-08
4.100645794e-06
1.312195233e-07
5.797107036e-07
-1.501478902e-07
-8.230166961e-08
1.762294598e-06
1.576205007e-07
1.255752565e-06
3.434154861e-09
-2.567045704e-07
-1.189815315e-05
1.258544049e-07
-1.470053011e-06
5.501780912e-08
-2.859445025e-08
-6.288288066e-06
4.477087336e-07
2.070082606e-06
3.748695735e-08
-5.063200659e-08
9.549185681e-07
8.059573267e-08
1.562742336e-06
-7.11514692e-09
-1.769049991e-08
5.559789359e-08
-1.650287902e-08
2.327041881e-07
-3.063902714e-09
-8.605311587e-07
5.967086172e-08
3.959650452e-08
2.310555477e-07
1.006583993e-08
1.632724394e-07
1.205284668e-08
1.412249731e-08
6.170897612e-08
-8.530267796e-09
1.859872296e-08
-3.963731943e-08
-2.077880757e-07
7.407559531e-07
-1.351696365e-08
-3.689118008e-09
-4.207453452e-08
-3.024971872e-07
-1.926204363e-06
-3.318186646e-08
3.255732301e-09
1.594328798e-08
7.889358523e-08
-1.825247187e-08
5.638274647e-09
8.118095461e-09
3.994841581e-08
1.065305843e-07
1.91750741e-07
3.924416575e-09
2.279863608e-08
1.301486527e-07
5.514720423e-07
2.038276065e-06
7.176984393e-09
2.870819219e-08
1.448250111e-07
5.522484916e-07
1.310107965e-06
-7.128231908e-08
-2.808733966e-07
4.733765721e-08
-7.169316354e-07
-1.177156977e-05
-1.146552087e-07
-6.211666251e-07
-4.206200104e-06
-2.842866879e-06
-6.760841907e-06
2.683989358e-07
2.947044302e-06
-1.239012727e-06
8.450504619e-06
2.272450851e-05
-1.728618852e-09
-3.124124155e-09
-1.510055103e-07
3.451485869e-06
2.42226662e-05
-3.252618096e-07
-2.916875441e-07
2.722901002e-07
3.671623807e-06
1.740342665e-05
-2.379240993e-07
-1.716127299e-07
2.02912428e-07
1.780118949e-06
7.033752872e-06
5.156128309e-07
5.932806554e-07
8.316109508e-07
1.443423911e-06
2.976370447e-06
1.166499843e-06
1.150871708e-06
8.115077048e-07
1.373937084e-06
1.797364432e-06
5.869358239e-07
5.996286351e-07
7.219539112e-07
5.748792342e-07
7.240456103e-07
1.894796823e-07
1.553076028e-07
1.531943668e-07
2.019960616e-07
1.763430042e-07
3.9452027e-08
3.87372138e-08
3.698651299e-08
3.553218989e-08
3.515387347e-08
7.133325873e-09
6.909643501e-09
7.217030088e-09
6.208314647e-09
5.539399846e-09
1.272902132e-09
1.334077756e-09
1.510458415e-09
9.116625381e-10
4.855383565e-10
2.487215253e-10
2.368372653e-10
1.459980928e-10
9.510324039e-11
1.61066381e-11
4.237359348e-10
4.376536772e-10
4.379036987e-10
1.604807357e-10
1.477126099e-10
5.212310422e-12
7.9898646e-12
1.294150801e-11
1.426301268e-11
1.201442474e-11
-3.155854688e-13
-2.295847634e-13
1.478755546e-12
1.739972262e-12
1.67241032e-12
4.517729013e-13
4.470237334e-13
4.37170882e-13
4.135042031e-13
4.003686264e-13
7.764183619e-14
9.936392892e-14
9.410613529e-14
6.514286466e-14
7.949440714e-14
-5.868125136e-14
-6.304426587e-14
-6.878455986e-14
-8.028034952e-14
-9.935239934e-14
1.340111273e-14
1.113192224e-14
6.560873599e-15
-3.217811795e-15
-1.514111831e-14
5.484236688e-14
5.216104373e-14
7.188540802e-14
6.553902498e-14
5.549779459e-14
8.163990575e-14
8.235913921e-14
8.53447134e-14
9.2929052e-14
6.280437855e-14
6.201935707e-14
6.123564539e-14
1.818330026e-14
3.983981845e-14
5.008208034e-14
1.912191178e-14
2.20596504e-14
2.68389342e-14
2.494530755e-14
-2.0498945e-14
-2.620091457e-13
-2.53077395e-13
-2.054474764e-13
-5.218723729e-14
1.808866019e-15
1.314654198e-13
-4.713932517e-14
-4.3046959e-14
1.785578314e-14
2.710192256e-14
-6.470248706e-14
-5.91097207e-14
-5.441629683e-14
-5.61620431e-14
-6.671430458e-14
-1.720968908e-13
-1.776442663e-13
-1.563048216e-13
6.329928654e-15
-3.984091165e-14
9.338718904e-14
9.191315169e-14
8.232067906e-14
7.482426048e-14
5.559416026e-14
2.205166439e-13
1.350189589e-13
2.806872487e-13
9.860340037e-14
1.115434509e-13
-3.184100851e-15
-3.751252535e-15
-6.202432366e-15
-2.385853936e-15
1.717082353e-14
2.184860952e-14
2.126316812e-14
2.021396175e-14
1.974745593e-14
2.005498505e-14
2.939128145e-14
2.410357202e-14
2.420128188e-14
2.339872006e-14
3.956085488e-14
-3.267449923e-13
-2.739378175e-13
2.045299037e-13
2.060883372e-13
4.090533034e-13
-3.02650174e-13
-3.040475106e-13
-3.063518173e-13
-2.997800632e-13
-2.767059211e-13
-3.05720654e-13
-3.076204029e-13
-3.069252537e-13
-3.001738182e-13
-2.782096512e-13
-3.017751999e-13
-3.066244525e-13
-3.122878151e-13
-3.140604448e-13
-2.967599272e-13
1.038274836e-13
1.031766797e-13
9.860919296e-14
8.861386704e-14
6.457171417e-14
1.028114723e-13
1.136192127e-13
1.338833743e-14
7.246520179e-14
5.273439909e-14
-3.846355536e-13
-3.87012548e-13
-3.876527512e-13
-3.853653988e-13
-3.649111504e-13
-2.149204729e-13
-2.134795779e-13
-2.128156131e-13
-2.175856895e-13
-2.300240384e-13
-3.751240151e-13
-3.912140898e-13
-3.90619583e-13
-3.854005046e-13
-3.626962183e-13
1.222236044e-13
1.21822284e-13
1.200243527e-13
1.164357902e-13
1.021718484e-13
7.17622227e-14
6.362309913e-14
6.749418421e-14
5.980619433e-14
5.227462609e-14
-2.176842198e-14
-2.116137711e-14
-2.067509991e-14
-1.726609386e-14
-1.02857674e-14
3.007807941e-13
2.886466696e-13
2.273569239e-13
2.067204367e-14
-5.074775212e-13
1.617952602e-13
1.62882146e-13
1.628066778e-13
1.552998424e-13
1.32800707e-13
1.352404454e-13
1.37370651e-13
1.409183272e-13
1.433573785e-13
1.412458341e-13
8.715244222e-14
8.625447498e-14
8.295749216e-14
7.429099437e-14
5.652746811e-14
-1.516387541e-12
-1.515597759e-12
-1.500959534e-12
-1.472575264e-12
-1.408356378e-12
-1.300515323e-12
-1.310881079e-12
-1.322955571e-12
-1.332912238e-12
-1.319368428e-12
-1.654512789e-12
-1.659487943e-12
-1.666681518e-12
-1.679854647e-12
-1.702586142e-12
-1.473853871e-12
-1.472807719e-12
-1.470551291e-12
-1.467391844e-12
-1.46381219e-12
2.728832806e-07
-1.157758121e-05
-2.99950416e-06
1.878543972e-06
4.092134071e-06
-4.451859741e-06
7.393651195e-06
1.556389182e-06
1.454206664e-06
5.6978266e-07
9.597751667e-06
-5.535188743e-06
-2.798988494e-06
1.208467137e-06
-3.155989702e-06
2.800833664e-06
-5.926569759e-06
-3.164062039e-05
-1.343418829e-05
8.860298182e-05
4.884584901e-05
1.747027916e-05
5.572475603e-06
2.353203153e-06
8.777104472e-07
1.6444573e-07
3.193280822e-08
5.525611516e-09
-2.757762012e-10
-6.248998142e-11
5.816857005e-11
9.351981619e-12
1.742133928e-12
3.92687064e-13
6.267429165e-14
-1.179720642e-13
-9.122275979e-15
4.970254665e-14
6.909326519e-14
1.142390341e-13
-2.312033349e-13
9.469383506e-14
1.053797994e-14
-7.45794551e-14
5.410143106e-14
-1.572799489e-13
1.558085525e-13
-2.754616343e-14
1.255927263e-14
1.845305401e-14
-3.622979355e-13
-2.508682583e-13
-2.564913679e-13
-2.629171755e-13
5.737392646e-14
-4.216933861e-14
-3.293520942e-13
-2.379827047e-13
-3.228238494e-13
8.831693141e-14
3.290655496e-14
-2.016886485e-14
1.619787019e-14
1.101873646e-13
1.273588501e-13
2.912556452e-14
-1.329934825e-12
-1.310085361e-12
-1.68075242e-12
-1.435653033e-12
0.0004475460757
0.0004485169724
-6.661823935e-05
4.918589359e-06
5.75420801e-07
1.739300441e-05
2.50884421e-05
-0.0003644919904
6.38741857e-05
2.880653417e-06
7.039443054e-06
7.827151947e-05
-0.001022384149
0.0003935209567
1.319801098e-05
1.090839479e-05
1.625945187e-05
0.0008009925026
0.0001278487627
-4.167211025e-05
-7.26235439e-06
-7.617951369e-05
-0.0003764951674
-0.0005898340474
-3.77951533e-05
2.309042862e-05
0.0001436176818
-0.0003504613279
0.0002830962517
0.0001774255073
6.945468912e-06
-1.324645424e-05
-0.0001340300779
-0.0002925855483
0.0002745985017
6.333532471e-06
4.46283821e-05
0.0005500556157
0.0001342977245
-0.0001685484456
3.857753701e-06
8.071407193e-06
-0.0001620219477
-0.003172215586
-0.0005153708582
2.453753088e-06
2.556296987e-05
0.0001309528638
-0.001341243253
-7.768188804e-05
-9.7352966e-06
7.519205959e-06
-3.975457878e-05
0.002828011
-0.001520753447
6.088711834e-06
-6.581399151e-06
8.216571841e-05
0.001303496215
0.003289824466
3.399435714e-06
-0.0005815483627
-4.272103665e-05
-0.0001936729612
0.0001475531334
1.146802681e-05
0.0001436741486
1.898353748e-05
-1.428771902e-05
-0.0001509646715
-3.654812575e-06
0.0001777795271
-5.659700349e-06
-2.349549463e-05
0.003378326311
7.658905876e-06
0.0001666843076
-2.466519938e-05
-7.558084126e-05
-0.003455950379
-1.034123858e-05
6.046071482e-05
-0.0001064099914
-0.0006482845462
-0.001933599759
-1.620463135e-05
-4.777774622e-05
-0.0002220062088
-0.0009382957937
-0.003442327889
-2.960081779e-05
-9.799498607e-05
-0.0002895009454
-0.0006678264465
-0.001076663533
0.0002843443247
0.001913533518
0.01168249326
0.0662016919
0.3403707661
0.0001268402713
0.0005590288124
0.002304784792
0.009250060531
0.0311171282
4.277025852e-05
0.0001444764691
0.0004156532379
0.00113499305
0.002680189047
1.190061818e-05
3.348311416e-05
7.785410384e-05
0.0001547411209
0.0002529833933
3.588559699e-06
7.00165083e-06
1.269139722e-05
2.021819496e-05
2.60922934e-05
9.159293581e-07
1.283808541e-06
1.739604961e-06
2.309341935e-06
2.620856892e-06
1.750773791e-07
1.691048372e-07
1.671653944e-07
1.77894822e-07
1.878537441e-07
3.084545989e-08
1.975568703e-08
3.086453211e-08
1.839169238e-08
1.707379004e-08
6.20203889e-09
3.53838407e-09
4.648247753e-09
1.424624965e-09
-2.18106645e-09
-7.709905897e-10
1.386309617e-10
-1.386131732e-10
5.117521745e-10
-3.054844768e-10
-1.867744288e-10
8.871643626e-10
-2.723510433e-10
4.099519629e-11
-4.732745942e-11
1.297942232e-11
3.148385232e-11
-5.133990401e-12
1.083096959e-11
5.809407331e-12
8.196964387e-12
6.186623082e-12
-6.461119924e-12
2.868172526e-12
4.777072691e-12
1.532879036e-12
1.489324706e-12
1.189440879e-12
2.861762683e-13
3.811170997e-13
5.562573365e-13
-8.568120618e-14
2.430491677e-13
1.65932505e-13
1.507153304e-13
2.211673596e-14
-5.463190829e-14
1.590326684e-14
-3.222220438e-13
-6.950132118e-13
-1.201673183e-13
2.075977368e-14
-5.457037587e-13
-3.386377522e-13
-3.332441884e-13
-1.754254558e-14
1.626914713e-13
1.02000668e-13
-1.378976934e-13
-1.112771636e-13
3.015846119e-14
1.675628036e-14
-3.190789062e-14
-4.875372836e-13
-1.485433688e-14
5.505288126e-14
5.824085494e-14
6.817041396e-14
-4.034527167e-13
1.431119446e-13
4.59343868e-14
7.257465078e-14
-3.795322079e-13
1.039442004e-13
8.158762318e-14
-4.101918159e-13
-4.278911067e-13
1.607364341e-13
5.908787135e-14
1.86172281e-14
4.586814213e-13
-1.678024268e-14
1.999412213e-14
-3.540128613e-14
-1.297117187e-13
-8.354577845e-14
-4.074952534e-14
-3.746924424e-14
-1.343982537e-13
1.157773348e-13
-1.538184337e-13
-1.355196105e-13
-2.965973864e-14
2.690242815e-13
5.875421591e-14
1.183964905e-13
4.173652597e-14
6.850544367e-14
-7.92478735e-14
-1.253713431e-13
3.237316626e-13
1.709164309e-13
3.763961689e-13
4.953619012e-13
-1.472761965e-13
1.285303383e-14
-1.376886786e-13
-1.329676795e-13
-4.0626387e-14
1.237450798e-14
-6.107053209e-15
-1.133081333e-14
5.184033221e-15
2.225761775e-14
4.567924841e-14
2.165815474e-14
2.661420351e-14
5.570865578e-14
2.791104951e-13
1.800828327e-13
-1.829629886e-14
4.251315724e-14
-3.121751532e-13
-3.489558488e-13
3.351818586e-13
-4.246063276e-13
2.377306928e-13
-1.65140043e-13
-3.571263964e-13
-3.694385891e-13
-3.117437735e-13
-3.416940362e-13
-3.498082421e-13
-3.636200035e-13
-3.761916859e-13
-3.22770942e-13
-3.425652069e-13
-3.362577817e-13
-2.58479716e-13
1.643685744e-13
-2.325605821e-13
1.155886389e-13
1.609963871e-13
1.21883938e-13
9.176233725e-14
7.201931887e-14
1.018716178e-13
7.099644503e-14
-4.443202191e-13
-4.333560247e-13
-4.057027549e-13
-4.616530502e-13
-4.171905378e-13
-4.301561875e-13
-3.36130712e-13
-4.1593054e-13
-3.546394534e-13
-2.884729177e-13
-2.7411199e-13
-3.096547842e-13
-2.5404829e-13
-3.195067738e-13
-4.379382635e-13
-4.368882441e-13
-4.066233646e-13
-4.105390796e-13
-4.353227564e-13
-4.098398879e-13
7.886595319e-14
1.125633563e-13
1.09930851e-13
1.00909103e-13
9.675315311e-14
9.108219261e-14
9.940113571e-14
6.476982906e-14
6.325132596e-14
7.892416327e-14
1.218532376e-13
1.98144485e-13
4.201044822e-14
1.137042363e-13
2.125530854e-13
1.206129814e-13
-1.27521789e-12
5.084379954e-13
-1.556339612e-12
1.217623553e-13
2.001946622e-13
1.761562722e-13
1.168544017e-13
1.142247798e-13
1.255515935e-13
1.287290849e-13
1.348108533e-13
1.421188236e-13
1.417923278e-13
1.439068372e-13
1.499932055e-13
1.618468167e-13
2.187542499e-14
-1.611508819e-14
-1.093983188e-13
-1.174415732e-12
-1.175217404e-12
-1.557697886e-12
-1.673504733e-12
-1.264240837e-12
-1.248425845e-12
-1.194112134e-12
-1.470785635e-12
-1.570202018e-12
-1.610444468e-12
-1.644543489e-12
-1.64717869e-12
-1.75114934e-12
-1.696343743e-12
-1.520469558e-12
-1.425361135e-12
-1.338908945e-12
-1.287894542e-12
1.308338657e-13
5.162326878e-13
5.509602045e-13
5.236404771e-13
5.200157854e-09
2.071623664e-09
2.924737384e-09
3.263658645e-09
3.263784087e-09
3.263863084e-09
3.263888311e-09
3.263889386e-09
3.263881574e-09
3.263870714e-09
3.26385858e-09
3.263846152e-09
3.2638339e-09
3.263822058e-09
3.263813263e-09
3.2641522e-09
3.264126039e-09
3.269018726e-09
1.563270399e-09
6.701657823e-10
2.846486084e-10
1.197256692e-10
4.984456165e-11
2.053166861e-11
8.364665494e-12
3.369358237e-12
1.341491031e-12
5.277721583e-13
2.051187444e-13
7.873178707e-14
2.983789638e-14
1.116213358e-14
4.120725375e-15
1.500832418e-15
5.391444124e-16
1.909731434e-16
6.668244503e-17
2.29455691e-17
7.778736586e-18
2.597258486e-18
8.538593061e-19
2.76322614e-19
8.800141776e-20
2.757262393e-20
8.497168472e-21
2.574941988e-21
7.671046033e-22
2.246145424e-22
6.462839151e-23
1.826926672e-23
5.072764645e-24
1.383280376e-24
3.703694709e-25
9.734926958e-26
2.511084791e-26
6.348027531e-27
1.56014342e-27
3.564131442e-28
5.589411833e-29
3.338781577e-30
4.061601504e-08
1.092601689e-08
2.395489862e-09
3.263143554e-09
3.263253575e-09
3.263359074e-09
3.263429963e-09
3.263463569e-09
3.263473316e-09
3.263471084e-09
3.263463017e-09
3.26345187e-09
3.263439412e-09
3.263426869e-09
3.263417203e-09
3.263765768e-09
3.263765508e-09
3.263368628e-09
3.268910639e-09
3.276547043e-09
1.576669376e-09
6.712603195e-10
2.824958838e-10
1.174993916e-10
4.829360822e-11
1.961101364e-11
7.86665453e-12
3.116593308e-12
1.219234397e-12
4.708954763e-13
1.795151717e-13
6.753389546e-14
2.506608685e-14
9.176792093e-15
3.313034854e-15
1.179177195e-15
4.136508842e-16
1.429788982e-16
4.868244052e-17
1.632343756e-17
5.38830502e-18
1.750663653e-18
5.597303765e-19
1.760452716e-19
5.445227555e-20
1.656037697e-20
4.950891292e-21
1.454648728e-21
4.19956159e-22
1.191059127e-22
3.317890149e-23
9.076298213e-24
2.437774882e-24
6.42731016e-25
1.662843949e-25
4.213975386e-26
1.036610666e-26
2.331088202e-27
3.617495313e-28
2.279581938e-29
2.44034069e-07
-2.838475304e-08
3.282198713e-09
3.263116704e-09
3.263186127e-09
3.263287909e-09
3.263387945e-09
3.263456205e-09
3.26348866e-09
3.263497565e-09
3.263492427e-09
3.263479611e-09
3.263463422e-09
3.263446222e-09
3.263432214e-09
3.263785044e-09
3.263798703e-09
3.263388928e-09
3.263374956e-09
3.263351824e-09
3.271694837e-09
2.276716042e-09
9.720171427e-10
4.095692667e-10
1.703434773e-10
6.993429417e-11
2.834114602e-11
1.133660918e-11
4.475561205e-12
1.743640838e-12
6.702656438e-13
2.541806235e-13
9.507355967e-14
3.506770271e-14
1.275224547e-14
4.570813251e-15
1.614427837e-15
5.617579845e-16
1.925171456e-16
6.496213222e-17
2.157737291e-17
7.05281326e-18
2.268200488e-18
7.175769042e-19
2.23230081e-19
6.826824046e-20
2.052095781e-20
6.06176793e-21
1.759262918e-21
5.015427482e-22
1.404268367e-22
3.860809572e-23
1.04211366e-23
2.760998549e-24
7.176299489e-25
1.824938007e-25
4.480532556e-26
9.841393865e-27
1.47161663e-27
8.991101468e-29
-1.197076236e-06
-1.199275101e-08
2.137990378e-09
2.845206101e-09
3.263157471e-09
3.263259982e-09
3.263379416e-09
3.263472285e-09
3.263526545e-09
3.263548193e-09
3.26354666e-09
3.263531369e-09
3.263508803e-09
3.263483296e-09
3.263461059e-09
3.263828948e-09
3.263832384e-09
3.263399132e-09
3.263380191e-09
3.263366139e-09
3.263349181e-09
3.268445031e-09
2.672190248e-09
1.142376111e-09
4.815409617e-10
2.001898975e-10
8.209144271e-11
3.320699452e-11
1.325072433e-11
5.21565002e-12
2.024874164e-12
7.75273281e-13
2.926926904e-13
1.089409031e-13
3.996724876e-14
1.444960259e-14
5.146875239e-15
1.805760277e-15
6.238697547e-16
2.121932173e-16
7.103399771e-17
2.339750409e-17
7.580741734e-18
2.415756343e-18
7.57041751e-19
2.332047472e-19
7.059625614e-20
2.099859027e-20
6.136099646e-21
1.761167192e-21
4.964038327e-22
1.373796943e-22
3.732374544e-23
9.95198612e-24
2.602138631e-24
6.645406471e-25
1.624232854e-25
3.476596546e-26
4.983243086e-27
2.939842521e-28
5.490385004e-07
1.759589321e-08
4.520793376e-10
1.702520496e-09
3.263143661e-09
3.263251338e-09
3.263400342e-09
3.263527154e-09
3.263604195e-09
3.263637793e-09
3.263640887e-09
3.263625322e-09
3.263596776e-09
3.263559045e-09
3.263522067e-09
3.263924514e-09
3.263893785e-09
3.263420239e-09
3.263394028e-09
3.263375515e-09
3.263359893e-09
3.2633451e-09
3.266976264e-09
2.768535256e-09
1.184416249e-09
4.992330296e-10
2.073908817e-10
8.492939398e-11
3.42896805e-11
1.364986203e-11
5.357322396e-12
2.072978026e-12
7.907201098e-13
2.972829289e-13
1.101440463e-13
4.020776455e-14
1.445845836e-14
5.120304115e-15
1.785356102e-15
6.12774513e-16
2.069758325e-16
6.878136193e-17
2.24811219e-17
7.225179013e-18
2.283116091e-18
7.0923459e-19
2.165141961e-19
6.493463426e-20
1.912886237e-20
5.534445146e-21
1.572376944e-21
4.385884194e-22
1.200860402e-22
3.226307476e-23
8.492678605e-24
2.177524451e-24
5.292320781e-25
1.104432977e-25
1.5190047e-26
8.680527723e-28
3.282363333e-05
1.494956981e-06
1.878593767e-08
1.250662767e-10
9.150124514e-10
3.263223057e-09
3.263355266e-09
3.263507542e-09
3.26361288e-09
3.263666136e-09
3.263681596e-09
3.263671864e-09
3.263645111e-09
3.263607327e-09
3.263570416e-09
3.264025958e-09
3.26396139e-09
3.263447373e-09
3.263411598e-09
3.263385928e-09
3.26336529e-09
3.263348307e-09
3.26333341e-09
3.26696615e-09
2.632399393e-09
1.12678491e-09
4.748132752e-10
1.970584928e-10
8.057369571e-11
3.246402891e-11
1.289041746e-11
5.044267128e-12
1.945267879e-12
7.392174215e-13
2.767700952e-13
1.020817522e-13
3.708300475e-14
1.326496828e-14
4.671346736e-15
1.619120949e-15
5.522236863e-16
1.852866473e-16
6.114413568e-17
1.983896166e-17
6.327510967e-18
1.983571119e-18
6.111004406e-19
1.849778389e-19
5.499500331e-20
1.605552793e-20
4.602352648e-21
1.295202939e-21
3.577575578e-22
9.693503483e-23
2.570832648e-23
6.615117972e-24
1.597093555e-24
3.253828255e-25
4.308062247e-26
2.395193646e-27
4.613732511e-05
3.883964416e-06
1.325193783e-07
8.722673088e-10
-1.711596899e-09
3.053514566e-09
3.26329928e-09
3.263436311e-09
3.263573247e-09
3.263655072e-09
3.263692059e-09
3.263697947e-09
3.263683063e-09
3.263654388e-09
3.263622975e-09
3.264137328e-09
3.264048337e-09
3.263485067e-09
3.263440197e-09
3.263406303e-09
3.263378541e-09
3.263356162e-09
3.26333792e-09
3.263321271e-09
3.267961286e-09
2.350833379e-09
1.006583811e-09
4.239498605e-10
1.75739925e-10
7.17292183e-11
2.883427231e-11
1.141767326e-11
4.45379935e-12
1.711451061e-12
6.478124416e-13
2.41509425e-13
8.866477924e-14
3.204938713e-14
1.140380388e-14
3.993421911e-15
1.375964703e-15
4.663735952e-16
1.554600305e-16
5.095135074e-17
1.641468733e-17
5.196959278e-18
1.616718929e-18
4.941372002e-19
1.483599258e-19
4.37443461e-20
1.266311368e-20
3.598228389e-21
1.003379069e-21
2.743342424e-22
7.331958596e-23
1.892777763e-23
4.537269464e-24
9.038410543e-25
1.156220977e-25
6.280214606e-27
-4.207375298e-05
-3.745005949e-06
-3.414373192e-07
-1.68166086e-08
3.369313541e-08
-3.301358099e-10
3.266506898e-09
3.263352712e-09
3.263515033e-09
3.263632827e-09
3.263695729e-09
3.263718505e-09
3.263714337e-09
3.263692826e-09
3.263667878e-09
3.264242087e-09
3.264143206e-09
3.263532446e-09
3.263480227e-09
3.263437575e-09
3.263401228e-09
3.263371834e-09
3.263348284e-09
3.26332907e-09
3.26330985e-09
3.26948872e-09
2.003602303e-09
8.577297941e-10
3.609145752e-10
1.493726653e-10
6.083647242e-11
2.439095856e-11
9.628452879e-12
3.742769207e-12
1.43267674e-12
5.400106683e-13
2.004067416e-13
7.321781314e-14
2.632937147e-14
9.317487751e-15
3.244147884e-15
1.111090895e-15
3.7423563e-16
1.239328333e-16
4.034355282e-17
1.290658721e-17
4.056934965e-18
1.252711872e-18
3.799449262e-19
1.131778567e-19
3.310467273e-20
9.505126141e-21
2.677526704e-21
7.390327475e-22
1.990139053e-22
5.151017446e-23
1.225715031e-23
2.390720946e-24
2.963647718e-25
1.577383541e-26
-8.466463353e-05
-4.456520195e-06
1.282554297e-07
-4.985744962e-08
-3.355740345e-09
-1.039703759e-09
2.547341308e-09
3.263298385e-09
3.263439069e-09
3.263593557e-09
3.263689345e-09
3.263733365e-09
3.263741995e-09
3.263727732e-09
3.263708102e-09
3.264331169e-09
3.26422951e-09
3.263577123e-09
3.263522464e-09
3.263475937e-09
3.263433445e-09
3.263396693e-09
3.263366127e-09
3.263341135e-09
3.263320776e-09
3.263298694e-09
3.271165359e-09
1.650455833e-09
7.056543901e-10
2.963852915e-10
1.223810299e-10
4.970454668e-11
1.986394316e-11
7.813184972e-12
3.025123785e-12
1.15300529e-12
4.325956492e-13
1.597572373e-13
5.806470077e-14
2.076674874e-14
7.307189828e-15
2.529127564e-15
8.608685162e-16
2.881070406e-16
9.478236659e-17
3.064535364e-17
9.735927231e-18
3.038589468e-18
9.314576883e-19
2.804046356e-19
8.288721511e-20
2.405152083e-20
6.846388259e-21
1.908322997e-21
5.177348816e-22
1.342767491e-22
3.171363418e-23
6.065092273e-24
7.307153796e-25
3.821944787e-26
0.0001070367521
2.765214573e-05
3.008510885e-06
9.814421662e-08
-1.351022848e-09
-7.91055916e-12
1.132518196e-09
3.264613407e-09
3.263345209e-09
3.263531157e-09
3.263666032e-09
3.263737876e-09
3.263763654e-09
3.263759103e-09
3.263745563e-09
3.264410652e-09
3.264311977e-09
3.263618827e-09
3.263562615e-09
3.263514138e-09
3.263468032e-09
3.263426271e-09
3.263390232e-09
3.263360229e-09
3.263335649e-09
3.263316302e-09
3.264096902e-09
3.053504903e-09
1.326876492e-09
5.657180638e-10
2.368747966e-10
9.74760199e-11
3.944280415e-11
1.569979582e-11
6.148747851e-12
2.369791745e-12
8.9885762e-13
3.355245715e-13
1.232483916e-13
4.454646349e-14
1.584006506e-14
5.540358387e-15
1.90578241e-15
6.445792089e-16
2.143177507e-16
7.003742985e-17
2.249088487e-17
7.095804864e-18
2.199038136e-18
6.692839083e-19
2.000073033e-19
5.866527615e-20
1.687616451e-20
4.74949148e-21
1.297613728e-21
3.370337685e-22
7.899708294e-23
1.483014875e-23
1.740522708e-24
8.967206329e-26
0.0001174902319
-0.001295341647
-1.200390796e-05
-1.123202107e-06
-2.000888086e-08
2.993941004e-09
1.212123678e-09
2.080332202e-09
3.263598148e-09
3.263458991e-09
3.263631126e-09
3.263735397e-09
3.263781838e-09
3.263788991e-09
3.263783034e-09
3.264488407e-09
3.264396911e-09
3.263660976e-09
3.263602918e-09
3.2635528e-09
3.263503947e-09
3.263458259e-09
3.263417461e-09
3.26338253e-09
3.263353523e-09
3.263329697e-09
3.263310504e-09
3.266525592e-09
2.420597075e-09
1.04727309e-09
4.445584636e-10
1.853167853e-10
7.591176676e-11
3.057238573e-11
1.210965922e-11
4.718698629e-12
1.80910064e-12
6.824645214e-13
2.533212793e-13
9.251480316e-14
3.323943763e-14
1.174733234e-14
4.083169956e-15
1.395566967e-15
4.689400967e-16
1.548867435e-16
5.027574367e-17
1.603493876e-17
5.024090518e-18
1.546119662e-18
4.672113381e-19
1.385609567e-19
4.028275937e-20
1.144249924e-20
3.146326839e-21
8.179107984e-22
1.902254597e-22
3.508170731e-23
4.016422309e-24
2.040831682e-25
-0.002045855716
-0.0004142766565
-5.857367772e-05
-2.553895451e-06
8.612652155e-08
2.036871803e-08
9.674542061e-10
-1.548667789e-09
3.190899592e-09
3.263539937e-09
3.263602587e-09
3.263738926e-09
3.263808558e-09
3.263829544e-09
3.263831136e-09
3.264579637e-09
3.264495139e-09
3.263706457e-09
3.263644942e-09
3.263593171e-09
3.2635418e-09
3.26349269e-09
3.263447679e-09
3.263408024e-09
3.263374362e-09
3.263346448e-09
3.263323484e-09
3.263301746e-09
3.269508568e-09
1.889235638e-09
8.128986364e-10
3.432012408e-10
1.422935334e-10
5.797191205e-11
2.321927332e-11
9.145839176e-12
3.54356426e-12
1.350693822e-12
5.065218134e-13
1.868793785e-13
6.782996451e-14
2.421786881e-14
8.504481478e-15
2.936912506e-15
9.972237526e-16
3.328710077e-16
1.092100265e-16
3.521048044e-17
1.11537532e-17
3.470722135e-18
1.060534188e-18
3.180029739e-19
9.342159905e-20
2.677556575e-20
7.40559656e-21
1.925746267e-21
4.443887735e-22
8.057831385e-23
9.012979925e-24
4.523549259e-25
-0.0006209338344
-0.0002043646088
-7.390695141e-05
-1.964466185e-07
1.772735869e-06
1.959414709e-07
9.053520169e-09
3.4432552e-10
1.804777633e-09
3.26484643e-09
3.263551833e-09
3.26372069e-09
3.263818934e-09
3.26385938e-09
3.263873641e-09
3.264669827e-09
3.264594818e-09
3.263755877e-09
3.263689831e-09
3.263635004e-09
3.263581551e-09
3.26352962e-09
3.263480949e-09
3.263436878e-09
3.263398518e-09
3.263366195e-09
3.26333944e-09
3.26331824e-09
3.263462407e-09
3.290716912e-09
1.44842113e-09
6.197123474e-10
2.60162436e-10
1.072524657e-10
4.344511318e-11
1.729978199e-11
6.774022801e-12
2.608878523e-12
9.883690872e-13
3.683560519e-13
1.350513404e-13
4.870686228e-14
1.727835506e-14
6.028143608e-15
2.068103907e-15
6.975908383e-16
2.313110086e-16
7.53844832e-17
2.414202808e-17
7.595807713e-18
2.346827914e-18
7.113854565e-19
2.111331655e-19
6.103346184e-20
1.696957298e-20
4.411492519e-21
1.009920421e-21
1.801680721e-22
1.971582079e-23
9.788112492e-25
-0.0003196299193
-0.0002864115514
0.001257841118
1.547519686e-05
8.008425579e-06
8.881087766e-07
4.917123288e-08
9.664515088e-09
8.452448919e-10
3.199046094e-09
3.263467723e-09
3.263679872e-09
3.263810553e-09
3.263875038e-09
3.26390543e-09
3.26474466e-09
3.264679814e-09
3.263800539e-09
3.263732374e-09
3.263675954e-09
3.263621126e-09
3.263567407e-09
3.263515886e-09
3.263468119e-09
3.263425499e-09
3.263388807e-09
3.263358017e-09
3.263332482e-09
3.263313601e-09
3.265666919e-09
2.503510923e-09
1.087520514e-09
4.629742234e-10
1.933583527e-10
7.928724564e-11
3.194055056e-11
1.264673944e-11
4.923301853e-12
1.884846639e-12
7.097409046e-13
2.628810701e-13
9.577673557e-14
3.432310318e-14
1.209780893e-14
4.193488414e-15
1.429346793e-15
4.789938157e-16
1.577903075e-16
5.108611168e-17
1.625109075e-17
5.076352222e-18
1.555337634e-18
4.662168789e-19
1.358675616e-19
3.795190823e-20
9.857561634e-21
2.238104454e-21
3.928491893e-22
4.20543401e-23
2.065311303e-24
-0.0003669611012
-0.0005429769093
-0.0002445546561
1.587788792e-05
2.466158539e-05
3.345047626e-06
2.198177738e-07
7.378368023e-09
-1.29851366e-09