/*--------------------------------*- C++ -*----------------------------------*\
  =========                 |
  \\      /  F ield         | OpenFOAM: The Open Source CFD Toolbox
   \\    /   O peration     | Website:  https://openfoam.org
    \\  /    A nd           | Version:  10
     \\/     M anipulation  |
\*---------------------------------------------------------------------------*/
FoamFile
{
    format      ascii;
    class       volScalarField;
    location    "0.0250188088";
    object      ddt0(rho,HCCO);
}
// * * * * * * * * * * * * * * * * * * * * * * * * * * * * * * * * * * * * * //

dimensions      [1 -3 -1 0 0 0 0];

internalField   nonuniform List<scalar> 
5170
(
-1.318007307e-66
-1.31811002e-66
-1.318193445e-66
-1.318461849e-66
-1.319305799e-66
-1.328869549e-66
-1.328994717e-66
-1.32917471e-66
-1.329505798e-66
-1.330320807e-66
-1.328931151e-66
-1.329077124e-66
-1.32933054e-66
-1.329678482e-66
-1.330480684e-66
-1.328909354e-66
-1.329085164e-66
-1.329389531e-66
-1.329732196e-66
-1.330546152e-66
-1.329034669e-66
-1.329130739e-66
-1.329446312e-66
-1.329900816e-66
-1.379708012e-66
-6.64785249e-66
-2.308680663e-66
-1.414213741e-66
-1.023448664e-65
-3.779494786e-63
-2.178182433e-61
-4.325012593e-62
-4.589063416e-63
-6.350551163e-61
-2.830632015e-58
-9.148973742e-57
-2.001528527e-57
-2.658667716e-58
-4.613738733e-56
-2.087761883e-53
-3.958439774e-52
-9.735676265e-53
-1.633740065e-53
-3.396149514e-51
-1.527152305e-48
-1.769171745e-47
-4.98236088e-48
-1.05721796e-48
-2.512162561e-46
-1.113755332e-43
-8.190710548e-43
-2.68314772e-43
-7.140259758e-44
-1.846995539e-41
-8.126192849e-39
-3.93180141e-38
-1.518862457e-38
-5.026442648e-39
-1.328181235e-36
-5.940084447e-34
-1.95990136e-33
-9.029426139e-34
-3.675971789e-34
-9.148267572e-32
-4.355405397e-29
-1.014019408e-28
-5.620310878e-29
-2.808697715e-29
-5.847748719e-27
-3.206306867e-24
-5.447401424e-24
-3.659866118e-24
-2.263516123e-24
-3.251547273e-22
-2.370017793e-19
-3.035532673e-19
-2.483015753e-19
-1.93767767e-19
-1.333142133e-17
-1.758851088e-14
-1.753284765e-14
-1.753634522e-14
-1.754260048e-14
-1.755831253e-14
-1.772405606e-14
-1.769648442e-14
-1.769926215e-14
-1.770227946e-14
-1.77074366e-14
-1.772512103e-14
-1.769757501e-14
-1.770022409e-14
-1.770311085e-14
-1.770858387e-14
-1.78884147e-14
-1.769757141e-14
-1.769865599e-14
8.711797063e-10
-6.675734614e-10
-5.594582323e-10
2.344863806e-14
2.247353148e-14
2.266446815e-14
1.805478442e-14
-1.753924122e-14
-3.464067026e-15
8.369502763e-15
-1.3550377e-15
-1.228580816e-15
-1.789665734e-14
-6.454550175e-16
1.359584647e-14
-1.099501452e-14
-1.139671729e-16
-9.451611965e-16
-6.700969033e-16
-6.046298355e-16
-4.471722986e-15
3.110042099e-15
5.929724305e-17
1.100857487e-13
-4.238873587e-15
1.821352515e-16
-8.922840268e-16
-5.150255524e-14
4.168809985e-11
1.301787606e-12
9.000544281e-14
-9.258423192e-13
-1.495989381e-10
-2.378126858e-10
5.452305819e-11
-6.066072418e-12
1.73853038e-10
8.673547471e-09
7.509993372e-10
-3.915880497e-10
2.257670724e-10
1.68177942e-08
6.909286059e-09
-2.774514395e-09
7.668438254e-09
5.811548764e-09
-9.982889333e-10
-1.438194512e-08
-1.223015266e-09
-1.681743734e-08
-1.421189381e-08
-7.078037587e-09
-1.859845868e-10
-1.706721246e-10
-6.859028884e-09
-6.834019706e-09
-9.267368954e-09
-1.400091813e-09
-3.363356082e-10
3.62777922e-09
-3.770892846e-09
6.446161355e-10
-4.698468679e-10
-7.943595017e-10
-2.126220774e-10
-3.852410084e-10
-5.478497011e-10
-1.904745423e-09
-1.406096181e-09
5.596832577e-10
1.831128435e-10
-1.345091076e-09
-1.908775078e-09
-2.106250883e-09
-1.269764812e-09
-1.096053384e-09
-1.810020513e-09
-5.950648929e-12
-9.119561393e-10
-1.845760517e-09
-1.676065457e-09
-2.233692818e-09
-3.764042221e-10
9.138331172e-11
-2.13655273e-09
-2.102453421e-09
4.146470072e-10
1.196307853e-09
-2.147501831e-10
4.093144243e-10
3.756334391e-10
-3.170728403e-12
3.603186782e-09
5.647598082e-10
-3.112901954e-10
4.974557881e-11
1.111167946e-09
-2.309083243e-09
1.066024577e-07
-1.888438078e-08
-8.449239417e-09
2.785372098e-10
-1.969608788e-09
1.139943301e-09
-4.265213275e-10
-3.139950252e-10
-7.622065112e-08
-7.397761327e-10
-3.577619652e-11
7.532650558e-11
-1.793040667e-09
9.092492281e-09
-1.396290286e-08
-7.459835036e-11
-7.046308805e-10
8.4284026e-08
-4.286827796e-10
-2.192179168e-08
-1.778438557e-14
-1.44329998e-09
1.263043139e-08
-1.543748966e-09
-3.628907237e-08
-4.683915124e-11
-1.573103226e-09
-1.139267509e-09
5.051023372e-09
2.409225289e-07
-1.379586468e-09
-1.543535904e-09
-6.627455359e-09
-8.064197133e-08
1.201186751e-08
-1.092380587e-09
-1.462186141e-09
8.368506886e-10
-7.416701025e-09
-1.523022374e-07
-6.328853901e-10
7.060840764e-08
3.8948144e-10
3.441270865e-08
2.638042231e-07
-1.331682334e-09
1.472334022e-08
3.080777564e-09
4.337369812e-08
2.616569409e-07
-8.908245374e-10
1.670450084e-09
3.499067827e-09
4.91874479e-08
4.633053368e-07
-9.950308682e-10
-2.6951594e-09
-2.920226015e-08
-1.423877767e-07
5.261467313e-07
-3.954415496e-10
-2.55872791e-09
-2.159246802e-08
-1.731601513e-07
-1.134215138e-06
-2.930184737e-09
2.151050432e-09
1.533714584e-08
6.785110059e-08
-6.991217752e-08
9.718041489e-10
3.383158797e-09
1.987120359e-08
8.14366081e-08
2.600173707e-07
2.097934015e-09
1.166173868e-08
6.430957852e-08
2.78433738e-07
1.33661456e-06
2.184994462e-09
8.615445638e-09
4.547573899e-08
1.94603646e-07
5.240263984e-07
-3.576852137e-08
-1.425819171e-07
9.636603975e-08
-3.743106275e-07
-9.210715455e-06
-7.324322879e-08
-3.776694885e-07
-2.487227764e-06
-1.450945769e-06
-2.776035459e-06
3.802042227e-07
1.870590847e-06
-1.545713653e-07
9.703383517e-06
2.320360089e-05
1.080071259e-07
2.661958513e-07
2.848912285e-07
2.203187441e-06
1.03212216e-05
8.423607466e-08
1.931540321e-07
5.982573316e-07
2.148439386e-06
7.518088664e-06
9.38819402e-08
1.71712952e-07
4.180356588e-07
1.085450683e-06
2.836442142e-06
9.770031079e-08
1.320793446e-07
2.255104026e-07
4.267850469e-07
8.435535023e-07
9.5255354e-08
9.661324556e-08
4.455872368e-08
1.413980385e-07
2.236484033e-07
2.489485771e-08
2.731773778e-08
4.129696751e-08
2.991034632e-08
5.261873303e-08
8.231732018e-09
5.255695165e-09
5.84889299e-09
1.203913512e-08
1.106264853e-08
2.278753439e-09
2.284475014e-09
2.247104779e-09
2.524938392e-09
2.320624781e-09
6.846190939e-10
7.006809779e-10
6.832397888e-10
6.790473772e-10
6.589992513e-10
2.192961366e-10
2.167871545e-10
2.255324112e-10
1.893694116e-10
1.434730925e-10
7.113386118e-11
6.96957748e-11
6.106333739e-11
5.478724999e-11
4.454720468e-11
8.471528306e-11
8.692652552e-11
8.621362572e-11
3.569860189e-11
2.137877011e-11
4.885876736e-12
5.311859496e-12
6.099294521e-12
6.102275313e-12
5.206078479e-12
5.05292895e-13
4.798716247e-13
1.471216724e-12
1.452004509e-12
1.328808439e-12
4.163942744e-13
4.078177687e-13
3.912037159e-13
3.635484384e-13
3.468215442e-13
1.20215551e-13
1.544679465e-13
1.51159384e-13
1.294687609e-13
1.605905395e-13
-8.743302583e-14
-9.317447218e-14
-9.538719632e-14
-1.095190476e-13
-1.21717861e-13
1.148348032e-13
1.1315066e-13
1.105800164e-13
9.842385657e-14
8.474684495e-14
1.971337556e-13
1.978381002e-13
1.69424466e-13
1.649867399e-13
1.538019894e-13
1.288453278e-13
1.304360562e-13
1.34919846e-13
1.435278672e-13
9.26448113e-14
3.47288297e-14
3.658335905e-14
-6.315630197e-14
1.21833012e-14
4.01734183e-14
7.311981822e-14
6.328351201e-14
5.529216181e-14
6.370259939e-14
-2.425589151e-14
6.629201729e-14
2.044964759e-14
1.313916398e-14
7.245167222e-14
1.530312145e-13
-1.154919752e-13
2.366657183e-14
-1.160836632e-14
9.402387689e-15
1.747970406e-14
1.422614548e-14
2.232246449e-14
2.923642213e-14
2.964693027e-14
1.145964784e-14
-9.750393535e-14
-9.630015938e-14
-1.008934749e-13
-7.261252029e-14
3.120546399e-14
1.332917985e-13
1.289865369e-13
1.137935695e-13
8.853987279e-14
3.252739294e-14
3.941439087e-14
1.834059664e-14
1.529148088e-14
8.45635548e-14
1.055401675e-14
1.338959592e-14
1.600649521e-14
2.157924787e-14
1.740284283e-14
1.566530052e-14
-5.082419498e-15
-5.626960129e-15
-6.685878044e-15
-7.006483293e-15
-6.46150016e-15
-8.652817238e-15
-7.107724629e-15
6.37797984e-15
2.048550689e-15
8.674426717e-16
-1.801732456e-15
-1.665435274e-15
-2.182252748e-15
-1.965548343e-15
8.323357797e-16
-2.249980255e-15
-2.432903756e-15
6.483594991e-16
2.551840455e-15
3.100233155e-15
-2.608540641e-15
-2.612678852e-15
-2.642491852e-15
-2.659897454e-15
-2.696630626e-15
-2.685597625e-15
-2.685541303e-15
-2.656967318e-15
-2.582482585e-15
-2.422082732e-15
-7.192697094e-17
-7.645340108e-17
-8.904644663e-17
-1.060742531e-16
-1.362632639e-16
4.378474352e-17
4.755659642e-17
1.127209363e-16
7.138737507e-17
-1.301723968e-16
-2.461089007e-15
-2.464797434e-15
-2.487072475e-15
-2.553718893e-15
-2.651559308e-15
-2.758250903e-15
-2.76130364e-15
-2.779060458e-15
-2.834279899e-15
-2.909725826e-15
-2.754591333e-15
-2.753105548e-15
-2.759494157e-15
-2.794033221e-15
-2.834839667e-15
-1.605553971e-15
-1.756482971e-15
-1.751578682e-15
-1.364322449e-15
-9.587804316e-16
-9.103495026e-17
-9.954620167e-17
-5.830653661e-17
-5.707364096e-17
-5.296861599e-17
-7.967721024e-17
-8.02180854e-17
-8.104178277e-17
-8.037661086e-17
-7.436423574e-17
-6.616264039e-17
-6.690224526e-17
-6.50223313e-17
-5.234221385e-17
1.465427476e-17
7.199159861e-15
7.256294726e-15
7.289142354e-15
7.231581599e-15
6.81608126e-15
7.257120382e-15
7.31886493e-15
7.352754301e-15
7.293444033e-15
6.868705663e-15
7.22916374e-15
7.289828877e-15
7.32239563e-15
7.265460708e-15
6.851589183e-15
5.242467251e-17
6.026808543e-17
6.692162027e-17
7.284743998e-17
7.50470903e-17
2.635259373e-17
2.734498485e-17
2.827578433e-17
2.729401432e-17
2.304701769e-17
1.981540143e-17
1.987788134e-17
2.108330293e-17
2.509901238e-17
3.401924313e-17
6.040154039e-17
6.372757431e-17
4.375642491e-17
1.651799745e-17
-1.392643842e-16
-1.055533684e-07
-1.155280198e-06
-3.56723749e-07
-6.251638989e-07
4.077975279e-07
2.554511932e-06
5.11040564e-06
9.14027584e-08
-1.155170316e-07
1.858379929e-06
6.630710332e-06
-3.344834144e-06
-2.069708919e-06
4.91030945e-07
-2.425306945e-06
5.390593034e-07
-1.247137168e-06
-2.077400739e-05
3.105631098e-06
2.829054472e-05
1.900495448e-05
5.915531504e-06
1.435453176e-06
3.226639438e-07
7.758169654e-08
1.124722441e-08
2.61324539e-09
6.560205986e-10
6.544680262e-11
3.483823599e-11
1.622150525e-11
4.590689022e-12
1.359923935e-12
3.31541951e-13
1.382145568e-13
-1.173341271e-13
1.14470913e-13
1.509249334e-13
8.486325203e-14
1.844278495e-13
-6.541711808e-14
8.153569707e-14
-2.178129975e-14
8.672256629e-15
9.831833942e-14
-1.812528498e-14
-1.773413857e-13
-5.124454762e-15
-9.644269704e-16
5.000440402e-17
2.634466788e-15
2.404210257e-15
-2.567317797e-15
-1.92868106e-15
-1.18841583e-16
-3.306239582e-16
-2.645526731e-15
-2.881043036e-15
-2.767554183e-15
-8.309645378e-16
-4.400266163e-17
-6.078290806e-17
3.142221622e-17
6.113006133e-15
6.157488134e-15
6.153950771e-15
6.113971838e-17
3.590858384e-17
3.702100062e-17
-2.388455345e-16
-7.744105427e-08
-3.112320151e-08
-1.646947296e-08
-2.432669459e-09
-3.885168466e-10
-2.512627127e-06
9.598294271e-07
-2.594468272e-06
-1.767415482e-07
-3.79519905e-09
-4.972122086e-07
-3.245441999e-06
-1.230321393e-07
6.300959829e-08
-4.344944678e-09
-1.247924971e-06
2.790077613e-06
-0.0001886557065
-8.800538353e-06
-1.024165959e-06
-1.681677698e-05
-0.0005386208211
-0.001211602128
-0.0004323869594
-8.648585516e-06
3.694153861e-05
0.0003680205246
-0.001739738469
0.0002820949215
2.1342293e-05
5.748614251e-06
-4.031228727e-05
-0.0002616588919
-4.444446959e-05
7.428435762e-06
4.8081475e-06
2.938406059e-05
0.0001310074905
-8.088740794e-05
-1.455411805e-05
-5.774723054e-06
-7.388324475e-05
-0.0001131021194
0.0004180316428
-0.0001770915868
4.014074231e-06
-1.100397031e-06
-0.0001835060536
-0.01495047914
-2.153731141e-05
-2.868821086e-06
1.540726082e-05
-8.487881534e-05
0.0111993612
2.02800671e-05
4.01186414e-06
1.643121976e-07
0.0003156779754
0.004578814894
-0.0005408285648
3.008997831e-06
-0.0002068774425
-4.318888744e-05
0.0001718803759
-1.120417649e-05
2.81623677e-06
6.035008261e-05
6.696208309e-06
1.46177597e-05
-7.446462379e-05
2.505971844e-07
6.821423015e-05
3.853762937e-06
6.160351749e-06
0.0157826793
-2.532574646e-06
7.018742272e-05
-1.442461057e-06
-8.476542498e-06
-0.01335206879
4.694301351e-06
-3.881911137e-06
-0.0001232456233
-0.001058922149
-0.0001227149191
-7.053641347e-06
-1.926176062e-05
-9.658330563e-05
-0.0005226324589
-0.001677832662
3.089704511e-06
2.672663186e-05
0.0001408064479
-0.0001973026584
-0.01596718183
6.729184686e-05
0.0002264220043
1.194560013e-05
-0.007015705303
-0.07068252185
4.70003723e-05
0.0001831640643
0.0005230510945
0.0006341193533
-0.003703956766
1.329800014e-05
4.440079796e-05
0.0001210768234
0.000225805947
3.039345193e-05
2.773783675e-06
7.400089382e-06
1.719897879e-05
3.084512095e-05
2.482497232e-05
5.279090833e-07
1.087401084e-06
2.032600441e-06
3.177326249e-06
2.989258092e-06
9.313266677e-08
1.552419316e-07
2.301395708e-07
3.031618035e-07
2.813972641e-07
1.500174266e-08
1.876902167e-08
2.225158411e-08
2.378025639e-08
2.07505597e-08
2.900552001e-09
3.038702389e-09
3.313049256e-09
2.922773663e-09
2.449084257e-09
6.908938195e-10
6.752045889e-10
7.1896488e-10
3.805615846e-10
-7.333348768e-11
1.892938552e-11
1.070270987e-10
7.169308805e-11
1.185390498e-10
6.425691363e-12
2.356253177e-11
1.551768989e-10
-3.262354452e-11
2.470375582e-11
6.291250558e-12
1.290305328e-11
1.368676545e-11
5.198755013e-12
8.217007899e-12
6.313728286e-12
4.44068233e-12
4.182228576e-12
-2.241212964e-12
1.459248953e-12
3.754458452e-12
1.150517713e-12
1.173310409e-12
9.364052566e-13
1.776721724e-14
5.173300586e-13
4.291371412e-13
-1.095166805e-13
1.813037391e-13
1.026409221e-13
2.757964146e-13
1.425745496e-13
6.397768256e-14
-7.830017517e-14
-5.30924544e-13
-1.187971484e-12
-1.376623287e-14
2.267734939e-13
-8.964028398e-13
-4.442594762e-13
-3.676325053e-13
1.078123672e-13
5.447444353e-13
4.596623602e-13
4.447179756e-14
-8.226592844e-14
1.098954097e-13
8.711044019e-14
3.130929056e-13
-5.619337553e-13
-2.893232819e-14
9.230135132e-14
3.038192468e-13
3.659329035e-13
-5.919612857e-13
4.141375676e-14
1.248510017e-13
1.945430581e-13
-5.132161026e-13
4.90594444e-13
-3.837616947e-13
9.458741467e-15
7.33106078e-14
1.676431089e-13
3.291655171e-14
-7.461846784e-14
1.210978158e-13
-7.027820146e-14
3.060634611e-15
1.093826627e-14
-2.736564476e-14
2.092197759e-14
3.142477115e-14
1.919327389e-14
-5.948253464e-14
-4.706189036e-14
1.361502351e-14
-3.181839167e-14
7.650087188e-14
4.609560972e-14
3.209346401e-16
1.441641591e-13
-9.473659834e-15
-5.271843541e-14
-3.706448121e-14
1.315394084e-14
3.992131584e-14
1.444932091e-13
5.134783665e-13
6.003955474e-14
-7.371595132e-14
-8.469897339e-14
8.19707393e-13
-2.064835484e-13
-4.504502494e-14
7.851472967e-16
-1.127630207e-14
-3.409511679e-14
-1.281718674e-14
2.698035275e-16
-3.137878065e-15
9.391193254e-16
1.901046131e-15
1.808985993e-15
-7.499296942e-17
2.384209571e-16
4.509686468e-15
6.596365993e-17
8.813099095e-16
2.735491286e-15
2.801484458e-15
3.196821664e-15
-1.815484236e-16
-3.130593978e-15
-2.831959449e-15
-1.976946959e-15
-2.542276625e-15
-3.305530265e-15
-3.1075572e-15
-2.598528524e-15
-1.807139191e-15
-2.977086554e-15
-2.955144558e-15
-2.117045655e-15
-3.157030686e-15
-1.189749302e-15
-1.875943466e-15
-8.243271733e-16
-3.425888243e-16
-1.98270214e-16
1.102045612e-16
1.36605688e-17
2.277552467e-16
-1.689430992e-16
-5.866087365e-16
-1.871037684e-15
-5.670578964e-16
-1.856990491e-15
-2.457926515e-15
-2.832217949e-15
-3.072099737e-15
-2.799992762e-15
-2.970616961e-15
-3.13436654e-15
-3.232171464e-15
-3.244780905e-15
-3.012769504e-15
-3.093369381e-15
-3.130347744e-15
-3.022419721e-15
-2.662081802e-15
-2.824098256e-15
-2.681605637e-15
-2.294613566e-15
-1.577885647e-15
-8.092237356e-16
-7.693954483e-16
-7.053904421e-16
-2.212040222e-16
-8.754348308e-17
-1.009012642e-16
-6.575068923e-17
-6.679449411e-17
-5.7556372e-17
-8.330806755e-17
-7.666169071e-17
-7.657443496e-17
-7.359366934e-17
-6.577972463e-17
-1.653278079e-17
6.351466791e-16
9.622125471e-17
7.138421984e-16
7.484070333e-15
7.973943622e-15
8.046192701e-15
7.680027304e-15
8.001071179e-15
8.067309205e-15
8.07239205e-15
8.114713992e-15
7.740902572e-15
8.057287922e-15
8.071708608e-15
8.070814233e-15
8.105153051e-15
7.755951487e-15
8.060179599e-15
7.486572177e-15
6.314599919e-16
1.541977541e-16
1.121362253e-16
1.496037747e-16
-4.035268122e-17
-3.639709177e-17
1.161408814e-16
4.568317086e-17
1.601091237e-17
3.178108322e-17
4.651098064e-17
3.676588867e-17
5.091450278e-17
7.228443074e-18
6.561597781e-18
-2.02682746e-16
1.342980287e-16
2.840004008e-16
-2.020370665e-16
6.712161288e-16
-1.494073917e-16
2.116214907e-16
-2.367706941e-12
-1.146808414e-11
-1.173347709e-14
8.191837204e-14
-8.647192034e-20
-8.646973971e-20
-8.647000499e-20
-8.647126862e-20
-8.647274437e-20
-8.647409888e-20
-8.647522884e-20
-8.647615328e-20
-8.647692998e-20
-8.647761375e-20
-8.647823508e-20
-8.646275276e-20
-8.646526932e-20
-8.647988277e-20
-8.648037562e-20
-8.64808417e-20
-8.648128513e-20
-8.648170753e-20
-8.648211039e-20
-8.648249504e-20
-8.648286269e-20
-8.648321442e-20
-8.64835512e-20
-8.64838739e-20
-8.64841833e-20
-8.64844801e-20
-8.648476494e-20
-8.648503841e-20
-8.648530107e-20
-8.648555341e-20
-8.648579591e-20
-8.648602901e-20
-8.648625311e-20
-8.648646861e-20
-8.648667585e-20
-8.648687517e-20
-8.648706699e-20
-8.648725155e-20
-8.648742914e-20
-8.648760004e-20
-8.648776449e-20
-8.648792281e-20
-8.64880752e-20
-8.64882219e-20
-8.648836314e-20
-8.648849913e-20
-8.648863008e-20
-8.648875619e-20
-8.648887764e-20
-8.648899462e-20
-8.648910725e-20
-8.648921776e-20
-8.648934663e-20
-8.648973792e-20
-8.649088012e-20
-8.649225197e-20
3.586155594e-12
1.122982229e-11
2.275810556e-13
2.036825606e-14
-8.64869761e-20
-8.648428043e-20
-8.648367903e-20
-8.648427319e-20
-8.648549499e-20
-8.648699334e-20
-8.648857243e-20
-8.649011619e-20
-8.649151567e-20
-8.649272187e-20
-8.649375046e-20
-8.64759202e-20
-8.648056809e-20
-8.649616049e-20
-8.649681342e-20
-8.64974111e-20
-8.649796462e-20
-8.649848044e-20
-8.649896342e-20
-8.649941733e-20
-8.64998452e-20
-8.650024952e-20
-8.650063243e-20
-8.650099574e-20
-8.650134102e-20
-8.650166965e-20
-8.650198282e-20
-8.650228158e-20
-8.650256687e-20
-8.650283954e-20
-8.650310034e-20
-8.650334994e-20
-8.650358898e-20
-8.650381802e-20
-8.650403761e-20
-8.650424835e-20
-8.650445049e-20
-8.650464395e-20
-8.650482981e-20
-8.650500883e-20
-8.650518064e-20
-8.650534556e-20
-8.650550408e-20
-8.650565646e-20
-8.650580297e-20
-8.650594385e-20
-8.650607935e-20
-8.65062097e-20
-8.650633509e-20
-8.650645577e-20
-8.650657315e-20
-8.650669866e-20
-8.650691452e-20
-8.650757717e-20
-8.650907475e-20
-8.651047939e-20
1.25631542e-10
9.766960706e-10
4.287666606e-12
-9.848438912e-14
-8.648127945e-20
-8.647836592e-20
-8.647789355e-20
-8.64787619e-20
-8.648037763e-20
-8.64823894e-20
-8.648454249e-20
-8.64866428e-20
-8.648856822e-20
-8.649026045e-20
-8.649170015e-20
-8.647140321e-20
-8.647814053e-20
-8.649492869e-20
-8.649576605e-20
-8.649651823e-20
-8.649720103e-20
-8.649782502e-20
-8.649839892e-20
-8.649892984e-20
-8.649942346e-20
-8.649988438e-20
-8.650031631e-20
-8.650072233e-20
-8.650110502e-20
-8.650146656e-20
-8.65018088e-20
-8.650213337e-20
-8.650244164e-20
-8.650273484e-20
-8.650301404e-20
-8.650328019e-20
-8.650353415e-20
-8.650377668e-20
-8.650400853e-20
-8.650423038e-20
-8.650444273e-20
-8.650464554e-20
-8.650483928e-20
-8.650502549e-20
-8.650520479e-20
-8.650537657e-20
-8.650554111e-20
-8.650569903e-20
-8.65058507e-20
-8.650599638e-20
-8.650613636e-20
-8.650627092e-20
-8.650640038e-20
-8.650652555e-20
-8.650665117e-20
-8.650680386e-20
-8.650711725e-20
-8.650795564e-20
-8.650944093e-20
-8.651056167e-20
-3.237732791e-08
-2.594339394e-10
-2.438629042e-12
-1.593934525e-12
-8.647390704e-20
-8.646836506e-20
-8.646706712e-20
-8.646817015e-20
-8.647054672e-20
-8.647359489e-20
-8.647693478e-20
-8.648029406e-20
-8.648347234e-20
-8.648631081e-20
-8.648870256e-20
-8.646593296e-20
-8.647494088e-20
-8.6493512e-20
-8.64945977e-20
-8.649553734e-20
-8.649636981e-20
-8.649711698e-20
-8.649779366e-20
-8.649841092e-20
-8.649897754e-20
-8.649950058e-20
-8.649998574e-20
-8.650043767e-20
-8.65008602e-20
-8.650125649e-20
-8.650162922e-20
-8.650198063e-20
-8.650231266e-20
-8.650262696e-20
-8.650292498e-20
-8.650320797e-20
-8.650347705e-20
-8.650373322e-20
-8.650397735e-20
-8.650421019e-20
-8.650443253e-20
-8.650464525e-20
-8.650484809e-20
-8.650504114e-20
-8.650522646e-20
-8.650540493e-20
-8.650557592e-20
-8.650573944e-20
-8.650589615e-20
-8.650604657e-20
-8.650619096e-20
-8.650632962e-20
-8.650646306e-20
-8.650659316e-20
-8.650673023e-20
-8.650692133e-20
-8.650733377e-20
-8.650827831e-20
-8.65096815e-20
-8.651061933e-20
7.430249616e-08
1.343674478e-10
-1.093988956e-11
-2.385840082e-11
3.539162719e-12
-8.646719869e-20
-8.646425695e-20
-8.646437379e-20
-8.646604139e-20
-8.646856895e-20
-8.64716074e-20
-8.647493733e-20
-8.647837674e-20
-8.648174531e-20
-8.648485703e-20
-8.64589576e-20
-8.647034814e-20
-8.649171252e-20
-8.649319836e-20
-8.649441693e-20
-8.649544919e-20
-8.649634715e-20
-8.649714328e-20
-8.64978582e-20
-8.649850611e-20
-8.649909755e-20
-8.649964076e-20
-8.650014231e-20
-8.650060753e-20
-8.650104079e-20
-8.650144569e-20
-8.650182525e-20
-8.650218203e-20
-8.650251819e-20
-8.650283559e-20
-8.650313584e-20
-8.650342034e-20
-8.650369033e-20
-8.650394687e-20
-8.650419086e-20
-8.650442317e-20
-8.650464497e-20
-8.650485691e-20
-8.650505861e-20
-8.650525037e-20
-8.650543399e-20
-8.650561068e-20
-8.650578025e-20
-8.65059423e-20
-8.650609736e-20
-8.650624611e-20
-8.650638902e-20
-8.650652708e-20
-8.650666453e-20
-8.650681844e-20
-8.650705341e-20
-8.650755359e-20
-8.650855706e-20
-8.650986968e-20
-8.651066324e-20
4.753920559e-07
5.550262125e-10
-7.488746325e-11
-4.237087485e-11
-1.530315735e-12
-8.646986354e-20
-8.646436477e-20
-8.64629677e-20
-8.646381096e-20
-8.646579781e-20
-8.646841815e-20
-8.647140709e-20
-8.647460766e-20
-8.647790112e-20
-8.64811522e-20
-8.645131877e-20
-8.646477998e-20
-8.64894533e-20
-8.649143993e-20
-8.649305078e-20
-8.649437007e-20
-8.649547511e-20
-8.649642461e-20
-8.64972579e-20
-8.649800047e-20
-8.649866951e-20
-8.649927736e-20
-8.649983336e-20
-8.650034489e-20
-8.650081782e-20
-8.650125696e-20
-8.650166626e-20
-8.650204899e-20
-8.650240792e-20
-8.650274539e-20
-8.650306341e-20
-8.650336371e-20
-8.650364779e-20
-8.650391693e-20
-8.650417226e-20
-8.650441478e-20
-8.650464553e-20
-8.650486555e-20
-8.650507559e-20
-8.650527551e-20
-8.650546552e-20
-8.650564681e-20
-8.650582091e-20
-8.65059883e-20
-8.650614857e-20
-8.650630169e-20
-8.650644871e-20
-8.650659177e-20
-8.650673799e-20
-8.650691298e-20
-8.650719695e-20
-8.650777063e-20
-8.650880173e-20
-8.651002863e-20
-8.651070263e-20
5.754663768e-07
7.757004795e-09
-3.297221756e-10
-9.445812863e-12
-1.363657638e-11
2.364639955e-12
-8.646569623e-20
-8.646246297e-20
-8.646235702e-20
-8.646381961e-20
-8.646609934e-20
-8.646882716e-20
-8.647180623e-20
-8.647492244e-20
-8.647807578e-20
-8.644422348e-20
-8.645928571e-20
-8.648698253e-20
-8.648939689e-20
-8.649142327e-20
-8.649309182e-20
-8.649446498e-20
-8.649561297e-20
-8.649659425e-20
-8.649745048e-20
-8.649820965e-20
-8.649889079e-20
-8.649950747e-20
-8.650006985e-20
-8.650058584e-20
-8.650106174e-20
-8.650150266e-20
-8.650191277e-20
-8.650229556e-20
-8.650265392e-20
-8.650299032e-20
-8.650330687e-20
-8.650360536e-20
-8.650388735e-20
-8.650415419e-20
-8.650440707e-20
-8.650464713e-20
-8.650487534e-20
-8.650509263e-20
-8.650529982e-20
-8.650549725e-20
-8.650568504e-20
-8.650586374e-20
-8.650603478e-20
-8.65061992e-20
-8.650635733e-20
-8.650650945e-20
-8.65066587e-20
-8.650681578e-20
-8.65070146e-20
-8.650734797e-20
-8.650798147e-20
-8.650902001e-20
-8.651016895e-20
-8.651073408e-20
-1.027903668e-06
-9.443455301e-08
-6.155927791e-09
-2.630183828e-10
1.438740708e-10
-8.473525086e-12
-8.646923211e-20
-8.646316254e-20
-8.646149343e-20
-8.646222626e-20
-8.646412837e-20
-8.646664076e-20
-8.64694778e-20
-8.647248404e-20
-8.647554824e-20
-8.643811238e-20
-8.64544532e-20
-8.648461403e-20
-8.648729513e-20
-8.648965307e-20
-8.649165789e-20
-8.649332473e-20
-8.649470562e-20
-8.649586347e-20
-8.649685327e-20
-8.649771581e-20
-8.649847925e-20
-8.649916301e-20
-8.649978099e-20
-8.650034363e-20
-8.650085904e-20
-8.650133367e-20
-8.650177275e-20
-8.65021806e-20
-8.650256076e-20
-8.650291624e-20
-8.650324955e-20
-8.650356284e-20
-8.650385796e-20
-8.650413649e-20
-8.650439985e-20
-8.650464931e-20
-8.650488595e-20
-8.650511072e-20
-8.650532449e-20
-8.650552816e-20
-8.650572243e-20
-8.650590746e-20
-8.650608352e-20
-8.650625143e-20
-8.650641278e-20
-8.650656971e-20
-8.650672674e-20
-8.650689773e-20
-8.650712452e-20
-8.650750527e-20
-8.65081861e-20
-8.650921928e-20
-8.651029778e-20
-8.651076389e-20
-4.924573204e-05
-1.866217866e-06
-2.255903607e-09
-2.285580046e-10
-5.867991786e-11
-1.79142329e-11
2.003129077e-13
-8.64657727e-20
-8.646170619e-20
-8.646114997e-20
-8.646240257e-20
-8.646457803e-20
-8.646724377e-20
-8.647016718e-20
-8.647319205e-20
-8.64325002e-20
-8.644999041e-20
-8.648237785e-20
-8.648522854e-20
-8.648782977e-20
-8.64901221e-20
-8.649207596e-20
-8.649370779e-20
-8.64950662e-20
-8.649620951e-20
-8.649718918e-20
-8.649804388e-20
-8.649880075e-20
-8.649947865e-20
-8.650009121e-20
-8.650064867e-20
-8.650115901e-20
-8.650162864e-20
-8.650206277e-20
-8.650246568e-20
-8.650284094e-20
-8.650319156e-20
-8.650352005e-20
-8.650382859e-20
-8.650411903e-20
-8.6504393e-20
-8.650465193e-20
-8.650489707e-20
-8.650512948e-20
-8.650535013e-20
-8.650555987e-20
-8.650575956e-20
-8.650595004e-20
-8.650613175e-20
-8.650630511e-20
-8.650647122e-20
-8.650663312e-20
-8.650679749e-20
-8.650698358e-20
-8.650724064e-20
-8.650766582e-20
-8.650838296e-20
-8.650940221e-20
-8.651041724e-20
-8.651078887e-20
4.342770952e-06
1.89421712e-06
1.603584252e-07
2.252643637e-09
-2.297408147e-10
-5.366276923e-13
-1.309930091e-11
-8.647025405e-20
-8.646301784e-20
-8.646055183e-20
-8.646088122e-20
-8.646258007e-20
-8.646499841e-20
-8.646780484e-20
-8.647078718e-20
-8.642686405e-20
-8.64454427e-20
-8.648012461e-20
-8.648311909e-20
-8.648592285e-20
-8.648846939e-20
-8.649070112e-20
-8.64925987e-20
-8.649418429e-20
-8.649550719e-20
-8.649662361e-20
-8.649758241e-20
-8.64984203e-20
-8.649916312e-20
-8.649982896e-20
-8.650043092e-20
-8.650097885e-20
-8.650148049e-20
-8.650194206e-20
-8.650236862e-20
-8.650276437e-20
-8.650313282e-20
-8.650347692e-20
-8.650379917e-20
-8.650410173e-20
-8.650438644e-20
-8.650465494e-20
-8.650490861e-20
-8.650514869e-20
-8.650537623e-20
-8.650559221e-20
-8.650579746e-20
-8.650599285e-20
-8.65061792e-20
-8.65063575e-20
-8.650652904e-20
-8.650669723e-20
-8.65068708e-20
-8.650707453e-20
-8.650736274e-20
-8.650782863e-20
-8.650857284e-20
-8.650957261e-20
-8.651053013e-20
-8.65108116e-20
8.375691327e-06
4.897981863e-06
-7.628295667e-08
1.341505436e-10
-3.957623116e-10
2.41601236e-11
2.910987245e-11
1.776260905e-12
-8.646750091e-20
-8.646188159e-20
-8.646043167e-20
-8.646124227e-20
-8.646317911e-20
-8.646571773e-20
-8.646855351e-20
-8.642143085e-20
-8.644096946e-20
-8.647787269e-20
-8.648096842e-20
-8.648393033e-20
-8.648669249e-20
-8.648918174e-20
-8.64913494e-20
-8.649318581e-20
-8.649471917e-20
-8.649600021e-20
-8.64970836e-20
-8.649801585e-20
-8.649883176e-20
-8.649955589e-20
-8.650020553e-20
-8.650079322e-20
-8.650132843e-20
-8.650181859e-20
-8.650226967e-20
-8.650268658e-20
-8.650307337e-20
-8.650343346e-20
-8.65037697e-20
-8.650408456e-20
-8.650438015e-20
-8.650465828e-20
-8.650492053e-20
-8.650516827e-20
-8.65054027e-20
-8.650562488e-20
-8.650583577e-20
-8.650603628e-20
-8.650622728e-20
-8.650640995e-20
-8.650658647e-20
-8.650676171e-20
-8.650694704e-20
-8.650717101e-20
-8.650749046e-20
-8.650799306e-20
-8.65087569e-20
-8.650973398e-20
-8.651063888e-20
-8.651083214e-20
-1.255537814e-05
-2.832442742e-06
-2.432414928e-07
-3.457870609e-08
-2.964620351e-09
5.38175065e-11
2.234398574e-11
-9.288144647e-12
-8.647504812e-20
-8.646606911e-20
-8.646189307e-20
-8.646121388e-20
-8.646234859e-20
-8.646441141e-20
-8.646694423e-20
-8.641700875e-20
-8.643728239e-20
-8.647589538e-20
-8.647899416e-20
-8.648202131e-20
-8.648491528e-20
-8.648759679e-20
-8.648999726e-20
-8.649207695e-20
-8.649383489e-20
-8.649530389e-20
-8.649653452e-20
-8.64975786e-20
-8.649847942e-20
-8.649926933e-20
-8.649997132e-20
-8.650060169e-20
-8.650117239e-20
-8.650169245e-20
-8.650216899e-20
-8.650260772e-20
-8.650301334e-20
-8.650338975e-20
-8.650374024e-20
-8.650406757e-20
-8.650437414e-20
-8.650466197e-20
-8.650493282e-20
-8.650518823e-20
-8.650542952e-20
-8.650565787e-20
-8.650587434e-20
-8.650607995e-20
-8.650627574e-20
-8.650646319e-20
-8.650664534e-20
-8.65068285e-20
-8.650702699e-20
-8.650727249e-20
-8.65076225e-20
-8.650815728e-20
-8.650893402e-20
-8.650988609e-20
-8.651074289e-20
-8.65108504e-20
-1.297248615e-05
-6.720692057e-07
-5.429541196e-08
-1.298859455e-07
-8.840048311e-09
2.728695041e-10
1.027258487e-10
4.098451669e-11
9.573390049e-13
-8.647324756e-20
-8.646581987e-20
-8.646291364e-20
-8.646288115e-20
-8.6464269e-20
-8.646635547e-20
-8.64144362e-20
-8.643518082e-20
-8.647455623e-20
-8.647752645e-20
-8.648048611e-20
-8.648338221e-20
-8.648613847e-20
-8.64886782e-20
-8.649094048e-20
-8.649289543e-20
-8.649454941e-20
-8.649593709e-20
-8.64971061e-20
-8.649810328e-20
-8.649896732e-20
-8.649972722e-20
-8.650040386e-20
-8.650101234e-20
-8.650156381e-20
-8.650206679e-20
-8.650252801e-20
-8.650295292e-20
-8.650334598e-20
-8.650371092e-20
-8.650405087e-20
-8.650436848e-20
-8.650466605e-20
-8.650494551e-20
-8.650520856e-20
-8.650545667e-20
-8.650569114e-20
-8.650591316e-20
-8.650612386e-20
-8.650632449e-20
-8.650651705e-20
-8.650670562e-20
-8.65068978e-20
-8.65071107e-20
-8.650737862e-20
-8.650775845e-20
-8.650832124e-20
-8.650910517e-20
-8.651003067e-20
-8.65108432e-20
-8.651086575e-20
-1.46242621e-05
-1.365565043e-06
1.21819039e-05
-1.403528747e-07
-3.422502226e-09
1.497286061e-09
4.161058143e-10
9.471815769e-11
2.601570963e-11
-8.64821794e-20
-8.647254168e-20
-8.64666888e-20
-8.646489592e-20
-8.646540945e-20
-8.646695501e-20
-8.641419448e-20
-8.643517171e-20