/*--------------------------------*- C++ -*----------------------------------*\
  =========                 |
  \\      /  F ield         | OpenFOAM: The Open Source CFD Toolbox
   \\    /   O peration     | Website:  https://openfoam.org
    \\  /    A nd           | Version:  10
     \\/     M anipulation  |
\*---------------------------------------------------------------------------*/
FoamFile
{
    format      ascii;
    class       volScalarField;
    location    "0.0250188088";
    object      ddt0(rho,k);
}
// * * * * * * * * * * * * * * * * * * * * * * * * * * * * * * * * * * * * * //

dimensions      [1 -1 -3 0 0 0 0];

internalField   nonuniform List<scalar> 
5170
(
-8.057279598
11.02056604
0.2830585491
-8.268404841
1.760629654
-3.414796882
10.84773702
25.25007368
0.4472323613
1.04243154
-47.97806868
-59.57448297
-50.07200471
-5.558564179
-4.184609769
51.10014937
23.32011724
-67.30162253
-2.575811788
-5.462808397
54.10682075
132.0443207
300.2886892
10.674456
-7.474023508
-119.2811981
-162.1037678
-65.26620971
-12.38252823
-2.383056993
-29.3514947
-130.8220386
-853.5434351
-38.36401054
-5.137858668
100.1281336
141.9175562
241.7156709
39.69118753
-6.324012861
57.98502985
113.256662
336.2315329
-12.74927725
6.062168833
-48.2768737
-7.555098211
152.7611368
-157.1259449
10.84406647
-67.90656795
-78.91752953
2.866937431
34.9074582
1.23673768
-6.068353985
-40.55215292
-58.14244439
175.4832862
-5.749847762
28.62761093
10.01843564
-43.24772913
158.0514954
-3.721352348
26.00607926
21.65399091
-8.901565683
22.41367635
1.011575044
5.219014979
53.47637509
7.388132242
-106.1342008
0.8875128147
-24.50068863
-28.94720014
10.29409018
-162.4452954
-3.176958261
-7.918067897
-26.44057515
3.50337258
-3.680693588
-2.163981034
10.49067363
3.661282871
-17.03301821
172.1720028
0.1552743005
8.163182248
9.024735357
-7.698282989
71.42872781
-4.118654667
5.348803817
10.3672836
1.412548109
-127.149688
-10.13959032
0.1091611414
0.1381936733
0.200759534
-0.09847030945
-0.07536813454
-0.004826801285
-0.01599622314
0.02900747577
-0.0082304999
0.0535160543
0.001841559137
0.09015695003
0.01057054955
0.06250573732
-0.001777244913
0.01245023369
0.07799974076
0.04689614893
0.03190946314
0.0007307310205
-0.005113706593
-0.01654617806
-0.03182256775
-0.006603679947
-0.002962029219
-0.002223174997
-0.02549639812
-0.0247441109
0.01562265119
-7.788237475e-05
-0.001737797224
-0.004578043369
0.01506089867
0.1417813824
0.005753743569
-0.0008354775334
-0.01388286099
0.01545451273
-0.03277607912
0.008831965202
0.001932340593
-0.002148241521
0.01136551131
0.2261292199
0.03624582157
0.004586960697
0.06381262227
0.06701102465
0.5137076489
0.02703851783
0.003295082928
0.05002720435
0.007772642401
-0.3652652834
-0.0691930731
0.001640565478
0.005149859452
0.07008780435
-1.210537705
0.02023525407
0.01713996773
0.2209625097
0.4221399503
4.074167085
0.4938703975
0.005521825504
0.3315377076
0.2133808949
3.585331469
-0.04956783201
0.05449741191
-0.7459399628
-0.5270930147
-15.21355302
-1.781239159
0.1059817195
-0.3562379746
-1.640709229
-2.730690639
0.7846763561
0.1609007232
0.8769363435
3.544479793
17.80678286
2.236162443
-0.02065401475
0.3323745077
2.477982878
7.252797588
0.1194026947
-0.03021606693
-0.139406053
0.2693150563
-4.15429814
-0.7446737583
-2.433346918
0.3858834567
0.8191796356
-11.91189699
-0.5337859865
14.98545689
-1.614818024
-0.6384717496
-33.01894509
-161.2142399
-23.59507375
4.405556645
-128.3030006
8.302421119
166.1409393
3.41697156
16.89524189
138.461871
312.6026524
224.2891095
21.84213321
15.85979257
269.439329
181.5383134
401.556464
-26.29506371
-12.51867564
-74.95491208
-219.3011058
62.59390737
-11.07166007
-53.21577985
-312.9212767
-36.96671473
115.6513237
-7.558522889
16.222676
-17.91162468
193.9731643
187.4864123
9.465172759
79.57053925
326.4943257
203.8483332
122.2789297
32.18223238
132.9771095
363.8254049
287.3638077
201.664905
73.25554773
111.1651296
158.3815641
136.9897746
35.9921411
104.031464
152.1037154
54.20473764
4.430564226
-104.6452443
-226.8624444
-601.993899
-439.5942146
-265.0365146
-162.3203663
-570.5616905
-271.0786756
-222.0425433
-193.5642151
-92.75752604
30.48652307
-72.18331734
-52.44781422
34.60999215
39.64273999
-200.729972
-71.55643821
6.054117156
54.37946623
82.42851495
515.2614394
437.1318676
270.0284653
75.87040739
-147.8917996
-350.8103066
-362.0499393
-431.9495332
-456.5779648
-382.5174857
-300.3322381
-193.6194828
-40.07303891
60.15584908
93.50722682
532.5081164
391.8988963
125.1488783
-291.8766689
-577.2185856
-296.0562641
-605.1351116
-1151.887967
-1834.365523
-2700.222657
-2983.4932
-3555.663035
-4727.600948
-6345.923125
-8389.390319
-11415.86265
-11331.20921
-11352.87225
-11176.99587
-10492.61094
-8743.948051
-8585.163602
-8118.321063
-7654.03316
-7042.383461
-4834.105234
-4878.902283
-4870.915002
-4859.395427
-4867.404953
-3621.395418
-3526.645771
-3112.099806
-2236.315045
-1311.874163
1999.837201
2083.622978
2144.563663
1999.402078
1759.988131
2212.803826
2188.315889
2184.287867
2168.970996
2075.355185
1882.684645
1924.119312
1893.781816
1889.552302
1880.931428
1457.308377
1481.425409
1460.094074
1456.731645
1455.137316
1070.67354
1057.359154
1056.567832
1053.56825
1032.437048
757.5453947
769.2713866
759.5629466
762.0304775
743.0561753
579.1008072
576.9597699
578.204513
570.593055
585.0018355
439.2594335
449.8784532
447.9335792
441.203989
452.1915906
335.7168131
336.9046168
332.0463808
333.1330853
342.2096126
233.3953266
234.1120042
234.0379849
234.2141613
232.8785524
149.4039077
152.7633296
154.0643904
149.6828102
156.5617544
94.34177861
92.91987554
94.27736549
93.94656811
95.5735661
56.51060289
55.02154928
57.12926621
55.41852974
60.39187333
29.15104493
35.23894421
34.55458628
32.7936117
32.09021805
22.86638896
19.92646877
19.64798068
22.53063586
19.37369119
13.87064625
12.83662022
13.40189905
13.75089824
13.69644144
8.289042571
9.148408219
9.544533849
8.607154184
10.96089267
7.987163916
6.013942098
6.613745912
6.508192416
8.823594429
5.392773833
5.03828296
5.199410212
4.897746781
7.333669177
5.141161861
3.966155823
4.167024827
4.416939708
4.840396069
3.482661575
3.702594657
3.681018286
3.634049816
3.122495964
3.539391111
3.049481673
3.081755732
3.126091474
3.109310084
3.058343758
2.638670206
2.582319226
2.703320285
3.347692967
2.7117614
2.225302539
2.316770463
2.240384479
3.412684936
2.230343661
2.031781829
1.994904143
2.210393883
2.336728362
1.771280662
1.991660998
1.880549035
1.854971148
1.897419104
1.581415647
1.780602036
1.892089019
1.757963965
0.9221133831
2.214626825
1.511197566
1.411124762
1.914750112
1.082315664
1.34109944
1.545825723
1.491510109
1.424692243
2.072286672
1.746451459
1.106474979
1.510470282
1.242186733
1.397106998
1.561624806
1.087683637
1.225067759
1.265821533
1.278550846
0.9844587811
1.185203475
1.128477976
1.277184982
0.3693763027
0.9725725538
1.10130899
1.076317084
1.165850259
0.4034288048
0.9627956207
1.037128565
1.058617974
1.069879486
0.4536263588
1.014834218
0.9543223881
0.9724513489
1.037070711
0.5518041791
0.921840206
0.9146098485
0.9226085556
0.9986357565
0.5884428802
0.79026707
0.8553872435
0.9243905736
0.9354618587
0.5518345289
0.7847993322
0.8233169046
0.8704543283
0.8856571542
0.2624846817
0.8260831431
0.7531085414
0.7573677624
0.8725288963
0.3488340664
0.655921065
0.7638563857
0.6643315444
0.7477071142
0.6315857824
0.7019416834
0.6195501436
0.6475970955
0.659181773
0.597825486
0.6087608061
0.6163874417
0.6288795346
0.6028315915
0.553899404
0.5767159913
0.5315304162
0.558869665
0.5420524052
0.5470658289
0.6359112314
0.6313947979
0.6556716374
0.6163455235
0.6442414805
0.4517777839
0.4289341601
0.4356619635
0.4310918997
0.4524249225
486.4272885
-572.9187041
-392.8923722
-272.9625159
122.7768754
87.04852069
206.4766661
130.176112
162.0435038
-6.905714724
-115.8110667
-88.87609761
-203.2503952
-25.25651917
21.84515778
20.06310543
-434.6406841
43.50851932
-909.3677537
-3286.519006
-9247.408306
-10117.25649
-6786.28796
-4974.837025
-323.3675821
1774.989768
2219.67702
1826.734379
1396.639382
1064.946312
783.2557091
518.6301195
413.3531317
298.0796279
235.5454606
142.3012937
90.746485
44.89309565
44.62156097
25.32677205
12.53271819
3.675013196
-0.7128240785
-2.185013451
2.418160963
6.12293204
3.74138177
0.6109958248
-1.29498372
0.9993129209
2.144216184
5.111564518
3.412583075
-0.6479016762
1.406951833
0.9739127735
3.853667801
3.482126087
3.123061916
2.465146389
2.082766913
1.973057922
2.926858386
2.266268279
0.9518002424
0.8180974364
0.8658256052
0.5166958321
0.5902386951
0.3260625045
-369.9501529
27.97880322
-13.36302269
8.582131476
-1.867727189
-53.81493912
56.09028774
-51.9718056
24.40205276
0.1057040233
-90.81509363
150.9600917
-65.56403625
102.2370543
-2.148714094
67.94189389
7.737706119
125.5255419
52.15124942
-43.00350633
226.9610196
105.7153419
127.215796
-88.59022806
-3.267086793
168.1941572
227.9484683
194.4566967
-18.56940596
34.24146039
174.1261161
90.1696707
29.54166814
48.16059987
86.99807881
106.4766183
12.0458186
41.19085518
-28.34535646
-19.77971485
98.2801495
61.79619286
-48.00455157
-8.092719579
-51.22356845
8.403080041
62.60161638
-118.6487018
-9.67047704
-112.1436318
-38.63536133
-54.72389325
-9.487756674
92.08947444
-91.69526546
-69.79916006
-120.8927096
52.8130033
-5.544922168
-54.94717801
-80.08257532
-69.06994769
-12.69498596
-98.480771
-55.3035304
-76.96878906
-82.02278751
17.91914902
-77.62339361
-110.6841828
86.05296779
28.66268751
-25.93975703
-178.4200303
-268.1074301
-250.3643284
-320.3960624
-511.8992522
-511.9572933
-435.5386322
-257.6087475
-173.9393469
-152.1449659
-181.6667329
-166.0094952
-89.42932782
-56.09093257
-27.07520951
-80.49355528
-213.9321208
-1014.883596
-1363.483201
-1730.244627
-2075.151809
-2104.74272
-4253.423648
-6907.811035
-10189.69468
-13632.48949
-10615.82806
-9944.144715
-10515.99454
-11017.90564
-12021.42684
-13344.16068
-9754.000879
-8840.962899
-8401.627052
-8622.385042
-7707.027966
-6871.322581
-7269.625309
-6292.252972
-4899.518939
-4409.599133
-4349.844737
-2817.733298
-2160.83999
-1907.19955
-1716.621334
-255.789462
46.71097553
240.9352222
332.7338583
321.6923277
1652.270823
1655.826442
1644.232665
1578.761261
1444.957052
2050.359673
2033.921427
1968.585223
1867.063999
1714.596957
1849.847983
1815.279563
1755.287692
1655.491989
1527.596395
1431.548322
1403.035479
1350.769835
1276.904036
1179.429127
1029.592326
1012.560803
976.1888529
924.9534684
860.2907312
744.2336783
734.3715097
711.5135889
678.6710482
639.0673316
571.0896855
558.9114195
544.4470611
525.1877264
499.9432267
443.181844
436.8069653
427.7112757
416.128885
399.3115295
336.0252806
330.3622011
327.2131263
318.206125
309.0623041
234.7862987
235.5487267
233.0099281
229.2871174
223.1476238
155.6562645
155.4243616
155.7678549
153.3273271
150.9161995
96.57492326
97.88119705
97.61682282
97.94981547
96.01705304
59.23246338
59.3190513
59.9399666
59.90390024
59.76719198
34.30551023
35.76377784
36.7728225
36.37986794
36.96309174
21.40035619
22.21898027
22.65685219
22.82143722
22.92693939
14.06587284
14.53430354
14.29284709
14.97061673
14.74997843
10.02551472
9.802050354
9.793268515
10.10587736
10.06626189
7.557797911
6.988071565
7.234320838
7.126514293
7.403441913
6.033848424
5.424301963
5.515422332
5.608228943
5.634000849
4.598536887
4.465625904
4.527110524
4.563338158
4.604772084
3.585349665
3.738983179
3.92323105
3.748309621
3.970584348
3.191503441
3.15208194
3.404577888
3.194660978
3.385279922
2.958939388
2.74117368
2.891025011
2.764279807
2.918612007
2.717429469
2.391055116
2.464329618
2.466313155
2.483938404
2.20898836
2.172289615
2.116701402
2.250607231
2.158166882
1.929057642
1.914026522
1.974419063
1.978246036
1.991862989
1.499511025
1.801655003
1.8316163
1.819197015
1.852677385
1.502968666
1.652569325
1.712890466
1.659445852
1.739957946
1.681463704
1.51541443
1.526478738
1.564486165
1.556375019
1.362939179
1.370015324
1.408571844
1.399321382
1.435692824
1.278273206
1.242246524
1.284309822
1.273535152
1.30945451
0.9194755925
1.183451303
1.164848149
1.192688424
1.207937837
0.8814859362
1.106944907
1.097671873
1.124961321
1.133233518
0.8627895332
1.053182267
1.053972952
1.065714399
1.089093298
0.8730613921
0.9876008956
1.005988422
1.020823273
1.02447588
0.8342072526
0.9545984091
0.952485727
0.965980681
0.982160505
0.7817917091
0.9242934447
0.8853515511
0.9266938053
0.9288914509
0.6601272364
0.8576485454
0.8606869013
0.8635307363
0.8846231689
0.6592075575
0.8008149037
0.8022133159
0.8116179093
0.8249909767
0.6983678833
0.7263783163
0.7340658202
0.743586678
0.7542746151
0.6382665897
0.6601989669
0.6659158791
0.676330315
0.6826291369
0.597209442
0.6190591847
0.6287657958
0.6309440271
0.6385496095
0.5462363372
0.5365070057
0.5450841789
0.5352218006
0.5422288128
0.62817296
0.6184128157
0.6163519528
0.605682268
0.5992544676
0.4194997292
0.3876578309
0.3527575144
0.3099411247
0.264447108
-0.06079357391
0.001990907842
-0.001213561301
-0.003868622244
-0.007714578003
-0.008476142356
-0.00749790781
-0.006589499119
-0.006106376205
-0.005549242362
-0.005294409198
-0.005188346204
-0.005731805627
-0.008042192664
-0.01066629185
-0.01052509152
-0.0101226353
-0.009621663
-0.008956067926
-0.008233178508
-0.007267010747
-0.006135575708
-0.004941158238
-0.003793986662
-0.002569922552
-0.001565809997
-0.0005707658364
0.0003792025246
0.001255388455
0.002053060024
0.002405879621
0.002613234911
0.002856685209
0.002994140064
0.003002166597
0.002924093294
0.00288602247
0.002818751293
0.002638503403
0.002427321897
0.002223993968
0.002011705596
0.001783339413
0.001638570744
0.001417210736
0.001141919103
0.0009572394444
0.0007618113838
0.0006165006698
0.0004475600551
0.0003176487331
0.0001821529905
5.863627828e-05
-3.285536884e-05
2.67741964e-05
9.448451246e-05
5.126619434e-05
-2.129605822e-05
-2.828868253e-05
-8.511256319e-05
0.004237370975
-0.02537030105
-0.0297842585
-0.0422246569
-0.04012194495
-0.03835873901
-0.0343481989
-0.02934797728
-0.02416657458
-0.01974271058
-0.01702441039
-0.01428409262
-0.01141886833
-0.006243115738
-0.0004005173223
0.002124666485
0.00379916871
0.004999795782
0.006035461665
0.006931453001
0.007765873819
0.008339111084
0.008662368262
0.008769924679
0.008587943071
0.008924006583
0.008883355927
0.008765381296
0.008557941424
0.008293983415
0.007981174846
0.007620146155
0.007224200643
0.006815618411
0.006281266302
0.005935941597
0.005522558347
0.005066498455
0.004609953935
0.004163666438
0.003751115562
0.003323580123
0.00299547652
0.00266549304
0.002335345055
0.002018401216
0.001713398317
0.001448131132
0.001199965188
0.0009862266646
0.0007993514408
0.0006480347735
0.0005398349317
0.0004665598532
0.000265552646
6.429125925e-05
-1.029303657e-05
-9.340132633e-05
-0.0001298849985
-7.688452539e-05
-1.120566942
-0.2939295468
-0.1342543718
-0.1241233014
-0.1420348009
-0.1366655542
-0.1192426485
-0.09944572768
-0.0786171471
-0.05937274348
-0.04221107645
-0.02943529185
-0.01918672335
-0.01267794995
-0.007911995708
-0.0045620974
-0.002468941814
-0.0006168035108
0.001084827522
0.002452938507
0.00313068766
0.003004193116
0.002760515456
0.002533488486
0.002478217505
0.002106139918
0.00194978495
0.001804450158
0.001673219456
0.001555811565
0.001459085829
0.001382424121
0.001321501162
0.001276581499
0.001255797964
0.001236050376
0.001153189662
0.001057643314
0.000962933455
0.000866265816
0.0007786215853
0.0007010148125
0.0006273711525
0.0005554147364
0.0004835606285
0.0004345724102
0.0003934209788
0.0003470585805
0.0002992799915
0.0002513949159
0.0002065875772
0.0001663066176
0.0001211999259
6.834197159e-05
2.242668075e-05
-2.121577388e-05
-6.156282165e-05
-0.0001579160265
-0.0002759815279
1.034739741e-05
-12.23093934
-3.23934628
-0.384641807
-0.3351914452
-0.3464686683
-0.3187544757
-0.2732434826
-0.2295246923
-0.1871042999
-0.1512056866
-0.117678748
-0.08804564264
-0.06524515049
-0.04972771879
-0.03897560036
-0.03168715332
-0.02596900848
-0.02132737763
-0.01783185822
-0.0152064039
-0.01321530808
-0.01134601821
-0.009773254467
-0.008449877156
-0.007294933067
-0.006314514209
-0.005478010358
-0.004714868894
-0.0039328816
-0.00326181113
-0.002663517166
-0.002119044022
-0.001672107526
-0.001322086475
-0.00103778837
-0.000813632793
-0.0006269047922
-0.0004430907517
-0.0002990668975
-0.000188797209
-0.0001052652675
-0.0001768539192
-0.0001563898194
-8.972141604e-05
-3.164242793e-05
-1.196953271e-05
-1.964130063e-05
1.973002687e-05
5.452102679e-05
7.37819899e-05
8.160685943e-05
7.85813615e-05
7.018687286e-05
4.509526984e-05
2.621560751e-05
-6.079186744e-06
-3.453280273e-05
-0.000151839858
-0.0002293924332
1.101413164e-05
-10.48423623
-6.514967164
-2.339239924
-0.9351334488
-0.7040974129
-0.5881216483
-0.4902394851
-0.4061605181
-0.327308371
-0.2573684721
-0.1989512635
-0.151898057
-0.1148377021
-0.0865306424
-0.06559517399
-0.05094463229
-0.04081174623
-0.03405137299
-0.02947926805
-0.02605477087
-0.02307972628
-0.02023879364
-0.01775608981
-0.01558217014
-0.01366802629
-0.01202254963
-0.01057912552
-0.00933613009
-0.008326958066
-0.007391453196
-0.006539205585
-0.005760957567
-0.005049493166
-0.004401060409
-0.003793304698
-0.003232450777
-0.00271723608
-0.002258281786
-0.001853025371
-0.001492914702
-0.001166561196
-0.0007512489235
-0.0005019643423
-0.0003251600921
-0.000190774374
-7.201500875e-05
2.427063474e-05
0.0001210031127
0.0001469185217
0.0001514766625
0.0001492574369
0.0001328817362
0.0001133882374
8.366162386e-05
6.326406667e-05
3.806241653e-05
2.550476557e-05
-2.101286539e-05
6.644423879e-06
0.0001563844632
7.552277166
-4.881377643
-5.194131563
-2.709622867
-1.176253034
-0.8284659981
-0.7035239345
-0.6030484176
-0.497275382
-0.3961074844
-0.305148353
-0.2291895202
-0.1686461107
-0.1227688517
-0.08894352483
-0.06534221845
-0.04959450244
-0.03884136055
-0.03147422504
-0.02614703663
-0.02208021193
-0.01884096922
-0.01612149678
-0.01377060204
-0.01182486096
-0.01020327912
-0.008746066733
-0.007512173758
-0.006477984196
-0.005551495949
-0.004736299683
-0.004052468356
-0.003455400309
-0.002924796944
-0.002450374031
-0.002038763877
-0.001679696983
-0.001372446862
-0.001107253127
-0.0008734842879
-0.0006631714444
-0.0004737315239
-0.0003163506141
-0.0001896777626
-0.0001094361641
-5.693985582e-05
1.439937394e-05
2.895436259e-05
6.557818651e-05
9.665423741e-05
8.966546676e-05
7.313307887e-05
5.468369322e-05
3.213525074e-05
2.164176855e-05
1.436910901e-05
2.968343733e-05
7.869461478e-05
0.0002210535458
0.0001933118803
9.311925578
10.74474965
-2.554897166
-11.61709616
-2.166031659
-1.042937898
-0.896333376
-0.7713098996
-0.647002545
-0.5256995291
-0.4106736257
-0.3115079937
-0.2303955649
-0.1677666226
-0.1219254928
-0.0896457513
-0.06721703402
-0.05156997973
-0.04116399315
-0.03398048489
-0.02849912759
-0.02415428907
-0.02060864631
-0.01758591898
-0.01504555635
-0.01290260827
-0.01106688823
-0.009526923218
-0.008180646117
-0.007016844742
-0.006039531584
-0.005175895749
-0.004424950028
-0.003787455885
-0.003226857898
-0.002740004011
-0.002316045147
-0.001950230215
-0.001628483805
-0.001346446563
-0.001097134127
-0.0008792762007
-0.0006939424396
-0.0005268140735
-0.0003494246226
-0.0002196982047
-0.0001676963671
-0.0001715892003
-0.0001631681687
-0.0001121340179
-7.388022281e-05
-5.335264874e-05
-6.029830388e-05
-6.117189429e-05
-6.870159885e-05
-5.675567225e-05
-2.389145667e-05
5.788250046e-05
0.0003343761809
-0.001542419432
-12.20352768
-32.22874123
-53.97201214
-35.50810246
-15.05301616
-0.6937648526
-1.083292373
-0.8970336414
-0.7614962779
-0.6253477564
-0.4935142124
-0.3729873091
-0.2748512164
-0.1989599393
-0.1437762036
-0.1052130632
-0.07858138565
-0.060784705
-0.04891965559
-0.04036904818
-0.03418389249
-0.02942108603
-0.02544410137
-0.02205371569
-0.01901965443
-0.01641848534
-0.01418677631
-0.01225691959
-0.01058061635
-0.009145775927
-0.00790767864
-0.006819992598
-0.005895652868
-0.005082488705
-0.00437107165
-0.003766184389
-0.003229102517
-0.00276725876
-0.002352083261
-0.001991704151
-0.001668872505
-0.001391231642
-0.001151077825
-0.0009426073115
-0.0007883011753
-0.0005761212721
-0.0004194317544
-0.0003268039512
-0.000278678717
-0.0002690402329
-0.0002675356656
-0.000232585329
-0.0002002324354
-0.0001811687919
-0.0001728237188
-0.0001407742433
-7.127224229e-05
7.534455407e-05
0.0005983459375
0.002124594172
-42.01358793
-41.64943077
-55.44149458
-97.21628779
-52.32624725
-0.8101667411
0.6016443517
-0.812169392
-0.8030607343
-0.6913553946
-0.5531885199
-0.4201242533
-0.3040461375
-0.2168288292
-0.1532448865
-0.1102363959
-0.08229549965
-0.06421969468
-0.05220754372
-0.04402010557
-0.03798345426
-0.03311295506
-0.02912638224
-0.02562017393
-0.02244362362
-0.01960394994
-0.01704034574
-0.0148049612
-0.01285271428
-0.01115144371
-0.009673921216
-0.008400702113
-0.007302081025
-0.006338704092
-0.005496462092
-0.004769988978
-0.004126812651
-0.003556097667
-0.003057809722
-0.002620167486
-0.002229412678
-0.001890832904
-0.001619326772
-0.001333502765
-0.001130332785
-0.0009895921638
-0.0008334276782
-0.0006257316881
-0.0004862502762
-0.0003975819056
-0.0003681689786
-0.0003654277342
-0.0003609714118
-0.0003023085235
-0.0002830604243
-0.0002302427253
-0.000157175105
4.517072534e-05
0.0007906406195
0.001709159917
-17.63298257
-41.14945
-60.69863755
-95.61268393
-81.56247372
-4.454143447
11.41970343
0.3384107932
-0.7203653485
-0.7096861541
-0.5839253661
-0.4500780305
-0.3201442231
-0.2231081035
-0.1527448668
-0.1065633175
-0.07833617816
-0.06204004348
-0.05137519779
-0.04404136343
-0.03905649832
-0.03510505037
-0.03156277834
-0.02824339355
-0.02517299319
-0.02228363805
-0.01954651663
-0.0170717598
-0.01489790088
-0.01298428755
-0.01131011293
-0.009854244973
-0.008591773368
-0.007492756237
-0.006525570764
-0.005680790336
-0.004937688612
-0.004282441831
-0.003709657855
-0.0032034165
-0.002757772073
-0.002369887022
-0.002026844691
-0.001720728263
-0.001463127982
-0.001245090579
-0.001065188545
-0.0009334325815
-0.0008070487816
-0.0006530438362
-0.000544524906
-0.0004617185582
-0.0004527541154
-0.0004317061389
-0.000397329844
-0.0003215991893
-0.0002435575993
-5.611000612e-05
0.0003447465623
-0.002095902605
-34.72897477
-151.9152388
-78.22404585
-112.5832443
-87.22019156
39.28348268
56.07748432
3.318113533
-0.4819244411
-0.6204438872
-0.5661275649
-0.4410152787
-0.3126549424
-0.2131935833
-0.1425110109
-0.094410397
-0.06749847496
-0.05334803823
-0.04556418493
-0.0408696902
-0.03772547243
-0.0354267387
-0.03297369678
-0.03025569791
-0.02742146774
-0.02458837572
-0.0218025457
-0.01919315531
-0.01682741155
-0.01471095932
-0.01284551502
-0.01120515505
-0.009773706454
-0.00852431863
-0.007437313675
-0.006486039988
-0.005664274009
-0.004934195351
-0.004299404537
-0.00373246637
-0.003240217629
-0.002800366312
-0.002419474668
-0.002074933023
-0.001782755071
-0.001527661576
-0.00131979024
-0.001133233462
-0.0009936461969
-0.0008779792521
-0.0007889770318
-0.0006597940496
-0.0005795612957
-0.0005398640398
-0.0004861201389
-0.0003821037476
-0.0002698268837
-4.13772672e-05
0.0002256747103
-0.001329136325
29.46306485
-129.7287004
-96.8183742
-138.9628418
-96.50933635
56.73576297
132.8908931
21.94491827
0.9051054581
-0.4204382745
-0.4741316619
-0.3851259338
-0.2757299955
-0.178546627
-0.1118058456
-0.06804332555
-0.04631346799
-0.03611480514
-0.03120422506
-0.0311770923
-0.03309991542
-0.03343592407
-0.03260871456
-0.03110005999
-0.02900751682
-0.0265157539
-0.02381496831
-0.02114402704
-0.01864455758
-0.01635015279
-0.0143023845
-0.01248867591
-0.010899711
-0.009506633878
-0.008294745731
-0.007242941119
-0.006328044122
-0.005535253662
-0.00483084799
-0.004216867137
-0.003669627389
-0.003188405088
-0.002764889819
-0.002390018611
-0.002070556825
-0.001791011196
-0.001561865671
-0.001353374411
-0.001181707785
-0.001025015019
-0.0009255680755
-0.0008248449844
-0.0007614261938
-0.0006123890955
-0.000579686886
-0.0004525663117
-0.0003607301227
-0.0001140249528
6.364295297e-05
-0.0006364379329
-48.45842449
-127.9594971
-143.9518808
-162.0382345
-127.6904462
77.36247102
238.1312658
64.90568466
4.346916198
0.002995647431
-0.2900771342
-0.2751753004
-0.2002148244
-0.1165495652
-0.05732746223
-0.02126647379
-0.005581315975
-0.008712486318
-0.01139337426
-0.01296523569
-0.02056518774
-0.02671238003
-0.02902623165
-0.02980444945
-0.02925597795
-0.02748000179
-0.02523751432
-0.02271062956
-0.02014835764
-0.01773917
-0.01554508153
-0.01359407258
-0.01187463036
-0.01036617259
-0.009049136932
-0.007911248778
-0.006916825877
-0.006058402463
-0.005300507208
-0.004641683102
-0.00405261256
-0.003534508769
-0.003084977844
-0.002687763787
-0.002347433048
-0.002035146615
-0.001775172605
-0.001543962035
-0.001360936407
-0.001187894528
-0.001067075859
-0.0009397916363
-0.0008591371855
-0.0007447733978
-0.0006550110278
-0.000522320993
-0.0003983731041
-0.0001863435791
-9.256767126e-05
-0.0001948969603
-121.5608767
-196.7409147
-214.3208956
-301.0575486
-180.649788
120.5207721
358.7355939
148.5392611
16.81905063
1.436643371
0.04252254493
-0.07310093805
-0.0546895889
0.004239942033
0.04315155771
0.05684192637
0.05701975592
0.04207439029
0.0261098365
0.01722408972
0.00199626262
-0.0129234995
-0.02056744283
-0.02526632266
-0.02713586885
-0.02701062256
-0.02564545599
-0.02352921767
-0.02113476283
-0.01871457708
-0.01643858643
-0.01437445261
-0.0125525401
-0.01096046133
-0.009585847099
-0.008388162204
-0.007350000466
-0.006438967744
-0.005653553456
-0.004957805731
-0.004356308288
-0.003817799561
-0.003358012629
-0.002938506881
-0.002578841276
-0.00224179071
-0.001968999903
-0.001718900018
-0.00153677621
-0.001338514647
-0.001201248599
-0.001053717966
-0.00095333567
-0.0008131515362
-0.0007018088202
-0.0005237108697
-0.0003449857623
-6.488756107e-05
5.798394515e-05
6.810113341e-05
-370.5366197
-488.5128094
-456.5194753
-372.997037
-117.7241747
273.2226997
438.7158859
227.0801189
50.14827923
5.308146579
0.6883873667
0.2283655071
0.1551183391
0.1596830025
0.1640866229
0.160013854
0.1409863923
0.106669578
0.08068457962
0.06066126824
0.03225597453
0.00819494761
-0.006881189036
-0.01661017699
-0.02192768043
-0.02425211301
-0.02441522616
-0.02320431013
-0.02128360108
-0.01905851593
-0.01683345656
-0.01477052491
-0.01291935447
-0.01129384667
-0.009878400057
-0.008647784763
-0.007582596502
-0.006657338882
-0.005856419474
-0.005157348117
-0.004550579385
-0.004013566845
-0.003545498971
-0.003120082488
-0.002755336
-0.002414020113
-0.002147221351
-0.001877159054
-0.001674946784
-0.001473415453
-0.001326933924
-0.001166406915
-0.001052825521
-0.000894141696
-0.0007723610329
-0.0005781366699
-0.0004079120372
-0.000163267109
-0.000211629463
0.0001842364776
-455.8033117
-560.0662333
-472.8381917
-161.4710273
205.8491961
510.0214735
443.7195221
304.1279603
104.5914932
18.71087165
2.421426768
0.6734033092
0.4180813068
0.339952511
0.2958750074
0.2525694115
0.2075842271
0.1839405014
0.1526329978
0.1070664216
0.06455311602
0.03361672906
0.01164778844
-0.003995662879
-0.01360115441
-0.01882210026
-0.02108237668
-0.02123536123
-0.02013904382
-0.01842537236
-0.0165043993
-0.01459807906
-0.01282536061
-0.01124368269
-0.009851772354
-0.008645231011
-0.007599317703
-0.006696748997
-0.005917114626
-0.005235853016
-0.004646504027
-0.004119006886
-0.003662316394
-0.003241453747
-0.002877031307
-0.002545820611
-0.002271411686
-0.00200581464
-0.00179893495
-0.001588637061
-0.001438174275
-0.001267378765
-0.001148311929
-0.0009839696738
-0.0008598310845
-0.0006739697661
-0.0005403571031
-0.0004102206777
-0.0007400913103
0.0001983661477
-445.1831922
-513.8395527
-335.8270906
151.1439264
282.0530917
434.8899687
320.4425785
253.9635848
181.3822248
48.55088734
6.282202574
1.257682397
0.6247727796
0.4801620182
0.3819780701
0.345396311
0.3132131288
0.2625226059
0.2066294791
0.1512694927
0.1025006793
0.06348012546
0.033386561
0.01220531594
-0.001934557343
-0.01067255635
-0.01539642212
-0.01730677526
-0.01743812366
-0.01655866786
-0.01517208424
-0.01361955288
-0.01208936846
-0.01068220132
-0.009418806551
-0.008319492729
-0.007360263486
-0.006530410865
-0.005809184938
-0.005176480484
-0.0046253092
-0.004127366461
-0.00368942543
-0.003293237591
-0.002951369914
-0.002629849641
-0.002360547542
-0.002095934808
-0.001890547627
-0.001676791671
-0.00152796718
-0.001348940522
-0.00121998444
-0.00103465653
-0.0008882726281
-0.0006610125987
-0.0004632207219
-0.0002537455927
-0.0005713928674
0.0002378789997
-555.8485531
-782.1910062
-301.9590981
-296.4618417
555.8988478
232.552573
109.1368166
173.9652964
214.7684062
87.47564488
13.28708848
1.764135334
0.9621123769
0.6853180014
0.5108090598
0.4231468875
0.3554454817
0.3031584229
0.2465569839
0.1873627161
0.1335161643
0.08898015261
0.05420135028
0.02871397535
0.01092941389
-0.0007530492676
-0.007781736468
-0.01152577868
-0.01305257306
-0.01323822247
-0.01265300922
-0.01167794526
-0.01059519739
-0.009519225396
-0.008523333932
-0.007625029853
-0.006835285893
-0.006139073399
-0.005523962979
-0.00497267518
-0.004483571035
-0.004039613052
-0.003647059053
-0.003283949844
-0.002964502749
-0.002661823711
-0.002406355647
-0.002153776702
-0.00195561123
-0.001746197946
-0.001596436472
-0.001409927424
-0.001277968236
-0.001087150867
-0.0009353447342
-0.0006995663111
-0.0005036436097
-0.0003280503564
-0.0007320536691
0.0002693990631
-2096.169706
-345.4415116
829.0755222
-261.2631519
-791.1337861
-376.6675589
-172.3166206
32.33393631
118.6811103
100.3159775
17.36040885
0.5147510559
0.4061893775
0.7173959965
0.6087559097
0.4532998516
0.3795950465
0.3234927979
0.2681505342
0.2108088646
0.1551446891
0.1083320962
0.07107852857
0.04337824707
0.02353466975
0.009982284847
0.001127725475
-0.004305335232
-0.007344800753
-0.008724079263
-0.009106828242
-0.008914436863
-0.008441288515
-0.00784134254
-0.00721965638
-0.00661600108
-0.00605378791
-0.005531828759
-0.005059986379
-0.00462424783
-0.004233346034
-0.003864762057
-0.003532014204
-0.003213983183
-0.002929699667
-0.002654329384
-0.002417021712
-0.002183801397
-0.001996195314
-0.001795614947
-0.001646537671
-0.001459341321
-0.001335007319
-0.00114985664
-0.001016487126
-0.000825483942
-0.0007271037745
-0.0007486578739
-0.001407730164
0.0002362136832
-4708.916495
-5237.407898