/*--------------------------------*- C++ -*----------------------------------*\
  =========                 |
  \\      /  F ield         | OpenFOAM: The Open Source CFD Toolbox
   \\    /   O peration     | Website:  https://openfoam.org
    \\  /    A nd           | Version:  10
     \\/     M anipulation  |
\*---------------------------------------------------------------------------*/
FoamFile
{
    format      ascii;
    class       volScalarField;
    location    "0.0250188088";
    object      epsilon_0;
}
// * * * * * * * * * * * * * * * * * * * * * * * * * * * * * * * * * * * * * //

dimensions      [0 2 -3 0 0 0 0];

internalField   nonuniform List<scalar> 
5170
(
6422.150475
6432.506411
6534.26209
7922.620511
34068.78157
5472.343376
5482.512477
5645.35514
9099.55852
52687.01988
4741.526617
4789.545117
5291.152658
10745.20209
77187.11137
4154.188392
4257.616036
5083.019476
12219.21133
94821.65586
3676.166265
3842.660917
4935.09048
13762.88368
115598.5699
3310.688924
3496.139049
4819.100743
15034.34091
128621.8042
2997.559856
3191.293962
4750.013484
15942.12029
134965.8504
2727.408936
2988.006045
4616.180712
16657.58086
138751.5117
2507.622767
2806.886165
4514.918703
17234.78608
140564.0789
2321.383056
2646.078495
4420.862528
18084.00808
140930.5833
2167.036182
2504.017635
4331.631662
19100.32402
140338.4987
2028.628143
2380.14035
4289.949875
20076.85285
139185.8263
1901.101991
2275.382353
4316.721311
21239.01172
137735.5176
1794.818194
2186.888697
4414.723347
22720.36076
136158.5078
1688.666134
2118.642756
4559.429193
24231.07072
134559.1433
1618.115365
2063.493739
4810.951724
26034.39036
133033.3108
1528.138176
2029.103178
5098.686703
27791.14974
131667.9108
1485.772695
2014.931674
5555.376668
29931.95254
130539.4268
1406.137422
2054.836577
6138.283071
32529.27847
129461.497
1406.637503
2231.61133
7515.674393
39785.1431
118301.097
1079.410677
268.7708135
181.9042889
348.83706
1140.925204
517.2574284
257.1522589
185.7147434
291.387912
440.8350156
282.0799867
220.8536425
175.3328032
201.0546611
194.8110333
185.7621082
162.8586986
155.4557912
205.1165268
130.3094869
148.3697628
143.5852133
142.266407
252.5988165
131.5888426
125.7441773
134.1382357
145.6626217
358.6680974
158.6110053
119.0599057
141.5083519
164.7375353
592.3404666
228.7528257
119.7354212
158.2501017
211.8138975
1027.459922
343.095695
125.1189599
180.1213605
276.0352406
1464.877961
471.5110766
132.5785814
203.1845731
345.0282222
1828.817761
592.4354195
140.1413545
224.076422
415.6064773
2159.312987
709.5915921
148.2653508
244.4202906
482.1653302
2433.732334
813.5832967
155.2444418
259.7085754
543.9606649
2671.921969
908.3099365
162.8424271
274.48717
598.0963293
2823.756077
983.2765106
169.5584481
285.3482149
653.35546
3010.136519
1073.284975
178.2437134
297.8912711
708.7600079
3216.174356
1154.174745
186.3743035
305.4136439
758.9638717
3273.802577
1186.062233
203.9817358
315.0864717
818.4093477
3375.984221
1236.264532
243.0271893
327.6603972
910.7077719
3425.968676
1279.843307
2186.790911
677.1331678
1370.160548
3558.523937
1307.762033
1384.828434
2305.82551
8352.535695
37104.959
73859.47393
1374.708691
2389.209921
9059.776139
35042.94769
63316.75948
1373.67469
2511.907221
9808.176282
33945.26189
63920.12254
1385.899864
2667.180993
10450.74301
33790.17678
65768.96865
1419.055127
2889.898755
11269.35064
34336.76089
65743.31523
1483.731723
3224.421513
12435.78968
35744.16289
64996.07337
1590.866789
3721.232779
13968.40034
37130.93881
63367.14188
1754.222338
4379.744433
15628.82518
38147.09447
61679.75469
1996.826725
5260.846081
17499.46296
38752.94506
59972.21235
2332.34115
6380.211803
19257.79304
38806.41303
58029.06731
2809.169051
7771.763586
21195.74224
38868.25225
56395.59801
3503.772533
9525.38857
22943.99242
38809.11593
54581.9973
4926.935683
11659.6201
24382.44958
38730.12611
53041.86092
6614.119687
13476.04392
25417.63109
38564.12693
51642.91264
9090.511299
15372.36998
26156.49478
38082.42794
49875.48739
11264.7618
16689.48228
26334.2686
37305.19948
48396.52884
13383.39084
18066.49562
26732.82246
36913.16853
47260.06224
15992.6788
19876.75544
27239.58081
36216.5127
45605.74463
17831.66247
21031.65756
27534.3584
35903.14811
45112.07388
19458.07176
22510.7108
28696.768
37114.16062
47006.66673
23717.99058
26905.11304
33592.67342
43505.6423
56041.79066
37133.34556
41045.12327
49651.45325
61623.13066
75294.02906
60742.82863
63265.14423
68620.52118
75897.2253
83815.93104
67158.66834
68503.66521
71412.20511
75494.53814
79989.50195
63456.395
64149.60621
65358.51092
66400.2994
66692.82565
49577.76932
49323.17616
48823.35484
48191.66677
47449.83796
33443.21876
33339.74225
33085.69306
32671.63982
32078.21551
22240.25676
22175.72912
22007.9791
21732.07036
21341.81681
14862.30286
14819.6282
14715.05363
14546.1353
14311.39588
10130.0486
10106.22311
10045.71891
9948.423196
9814.01561
7104.462587
7090.445044
7056.190368
7001.391768
6925.873291
5125.700806
5118.518691
5099.695082
5069.337482
5027.252015
3797.264712
3792.993853
3782.503593
3765.570434
3741.99537
2880.928677
2878.960687
2873.279511
2863.921437
2850.707894
2241.162588
2239.896942
2236.690188
2231.396915
2223.856629
1787.584228
1787.038657
1785.254085
1782.228015
1777.831127
1461.29277
1460.865948
1459.766003
1457.911119
1455.192105
1219.484384
1219.290193
1218.605274
1217.413893
1215.635713
1034.782883
1034.585409
1034.088388
1033.249196
1031.996888
888.5198987
888.4191037
888.0655342
887.4584739
886.5425179
769.7055935
769.5907113
769.3099175
768.8415627
768.1410718
670.8561608
670.7966644
670.5871284
670.2307853
669.6927047
587.5983428
587.5275243
587.3567547
587.0737816
586.650698
516.5688774
516.5336573
516.4054131
516.1876976
515.8588485
455.6743171
455.6307155
455.5257643
455.3520699
455.0921686
403.06934
403.0488309
402.9706164
402.8375627
402.6355638
357.5418101
357.5153287
357.4513416
357.345267
357.1856925
317.9291584
317.9162903
317.869001
317.7882249
317.6646511
283.4099234
283.3939569
283.3552707
283.2908865
283.1933431
253.2011619
253.1943896
253.1662995
253.117783
253.0426344
226.7050351
226.6957425
226.6727557
226.6341736
226.5750649
203.3803141
203.3772392
203.3610671
203.3325854
203.2876156
182.82171
182.8166944
182.8036396
182.7813388
182.7464132
164.637535
164.6366091
164.6278126
164.6117816
164.5856519
148.5426531
148.5401339
148.533077
148.5206994
148.5006784
134.2459242
134.2461727
134.2417997
134.2332968
134.2187075
121.5390817
121.538019
121.5345716
121.5281974
121.5172797
110.1995248
110.2003707
110.1985956
110.1946097
110.1870324
100.0798452
100.0795918
100.0782816
100.0755156
100.0701688
91.00781495
91.00893433
91.00869336
91.00741365
91.00413466
82.89353383
82.89368278
82.89360114
82.89296566
82.89098134
75.57980557
75.58099716
75.58159021
75.58184646
75.58108149
69.03971521
69.04011357
69.04071357
69.04128149
69.04125661
63.08471652
63.08586342
63.08687452
63.08795212
63.08861428
57.81746148
57.81796798
57.81888658
57.82004911
57.82105518
52.87895889
52.88000517
52.8811727
52.88261906
52.88400304
48.74385713
48.74433299
48.74522851
48.74643385
48.74766111
44.36164534
44.36272529
44.36422908
44.36626018
44.36855395
41.62999063
41.63035889
41.63097041
41.63173943
41.63241468
36.68499461
36.6854425
36.68626733
36.68748184
36.68911647
21071.30609
71824.74947
86105.52821
86061.59124
84037.38875
81507.13802
78519.03971
75584.0704
72623.54367
69532.82815
66897.83138
64102.08993
61730.58094
59615.39593
57158.86074
55290.21159
53739.45894
51652.15694
51354.04293
54094.8917
65600.15632
83871.62839
88758.48094
82455.09276
66367.23214
46832.28657
31605.26902
21039.55105
14132.53205
9712.256854
6868.87976
4995.513244
3724.268962
2840.764707
2218.153873
1774.436356
1453.030405
1214.163676
1030.926058
885.7349105
767.5143365
669.2039381
586.2656388
515.5570853
454.8542402
402.4493262
357.039029
317.5500043
283.1030632
252.9724674
226.5198566
203.2452032
182.7135516
164.5606082
148.4814564
134.2043306
121.5064785
110.1792335
100.0645918
91.00040773
82.88862188
75.57981754
69.04078049
63.08874352
57.82158271
52.88486183
48.74848022
44.37023882
41.6328022
36.69067542
57262.98353
13548.86113
3510.693213
2994.084776
689.3351967
100805.0583
56692.63122
14540.41667
4190.783016
836.1837931
111927.9723
92196.6398
42670.22938
12574.77424
2429.532742
110288.1085
105831.6983
75036.9028
34473.31743
8850.376507
106537.8228
111728.0231
93472.92569
54146.58368
21343.16186
102942.8978
113046.6373
102102.8442
68797.7033
33946.30331
98286.11435
111423.9115
104540.9829
78459.88857
44948.43101
93823.50412
107719.3818
104315.231
84824.09434
54174.64109
89349.29165
103388.26
103085.3657
89216.18575
62401.28275
84819.44912
98834.04518
101151.1671
91094.25717
68563.59203
80878.71313
94445.94647
98068.18094
91162.75595
72986.07519
76841.07683
89894.23513
94680.8282
90588.27808
76593.88603
73374.83603
85882.02059
91507.34589
89497.33095
79188.79981
70378.05985
82498.23323
88718.82454
88269.83167
80740.71948
67040.69909
78653.83183
85519.0599
86849.12808
81685.24768
64631.66657
75878.24957
83074.37727
85542.393
82628.52506
62613.97799
73670.20356
81129.97213
84628.03066
83640.74411
59998.03045
71087.08198
79437.48111
84584.2635
85663.48038
60022.95627
72218.33554
82639.26832
90702.15138
94725.26984
64095.73666
80442.65498
96840.42728
107811.5894
105991.5446
78784.89059
99779.34178
113645.7932
115211.3158
103811.8535
95048.3022
108107.4878
112925.674
107834.5408
90637.9734
95328.88405
102634.3057
101649.3799
90524.95799
73983.65613
85541.86439
85350.31208
79837.23495
70016.19135
57754.03481
66096.79197
63705.31186
58721.46652
51609.92776
43343.22261
46194.06447
43998.19381
40488.70967
35947.96044
30851.9115
31109.77612
29622.30878
27427.26122
24694.574
21660.75187
20723.4959
19818.00362
18521.34791
16928.36115
15156.9604
13946.36136
13420.84323
12674.65096
11757.74981
10728.8861
9607.18397
9309.005738
8883.616503
8356.193177
7755.674603
6810.934121
6642.9207
6399.775817
6093.652051
5738.557366
4964.235213
4869.455782
4729.007467
4548.564751
4334.788123
3707.646987
3653.776466
3571.427843
3463.145723
3332.003054
2831.980708
2800.9612
2751.831058
2685.640864
2603.702611
2213.309816
2194.927714
2164.913227
2123.568678
2071.325702
1771.492843
1760.070117
1741.110251
1714.536575
1680.344202
1450.97488
1443.405818
1430.882565
1413.153485
1390.011026
1212.574627
1207.235582
1198.555002
1186.22332
1169.960247
1029.625748
1025.661884
1019.370433
1010.444948
998.5978466
884.6668013
881.6357325
876.9254437
870.2602667
861.3765026
766.6389918
764.2782723
760.6698437
755.5772047
748.7708103
668.4983227
666.6483559
663.8482938
659.9007027
654.6117321
585.6991329
584.2422389
582.0502671
578.960368
574.8108963
515.1085843
513.9622737
512.2394224
509.8070385
506.531607
454.4991866
453.5953259
452.2362469
450.3133481
447.7164396
402.1711836
401.4601702
400.387006
398.8632646
396.7982169
356.820084
356.2593688
355.4100045
354.199624
352.5533101
317.3792809
316.9380613
316.2656126
315.3026977
313.987463
282.9690279
282.6208647
282.0873437
281.3196872
280.2666978
252.8684739
252.594843
252.1718313
251.5593317
250.7149489
226.4387522
226.2231891
225.8872822
225.3978329
224.7196093
203.1831085
203.0146821
202.748768
202.3579627
201.8130053
182.6658274
182.534148
182.3235798
182.0113412
181.5730315
164.5246165
164.4223332
164.2559841
164.0066252
163.6539057
148.454209
148.3747775
148.2434056
148.0442431
147.7602457
134.1842645
134.1231789
134.0198115
133.860915
133.632214
121.4917422
121.4449102
121.3637172
121.2370343
121.0528618
110.1689222
110.1335453
110.0700866
109.96922
109.8208658
100.0575958
100.0312314
99.9819887
99.90202049
99.78282944
90.99611504
90.97690254
90.93895318
90.87567682
90.77991152
82.88626732
82.87265743
82.84379415
82.79411616
82.71755901
75.5790035
75.56969686
75.54787879
75.50886261
75.44752429
69.04109936
69.03523795
69.01921152
68.98904035
68.9403778
63.08988254
63.08651423
63.07480676
63.05139361
63.01259036
57.82324833
57.8218112
57.81361837
57.79579026
57.76517821
52.88691974
52.88690614
52.88137622
52.86789094
52.84376905
48.7504416
48.75083222
48.74660124
48.73567244
48.71576228
44.37336889
44.37643681
44.37595936
44.37014377
44.35699076
41.63403533
41.63335937
41.6285332
41.61803118
41.60033324
36.69362981
36.69801878
36.70204063
36.70551807
36.70808816
14.60379508
0.3173608238
0.02008816052
0.00381435105
0.00175854288
0.001391466356
0.001282535009
0.001239696478
0.00121818396
0.001205680788
0.001198149751
0.001194394215
0.00119334182
0.001195316376
0.001200422027
0.001205350395
0.00120940756
0.001212779855
0.001215530321
0.001217516561
0.001218427069
0.001218447932
0.001217839131
0.001216793865
0.001215382893
0.001213650084
0.001211812425
0.001209885666
0.001207576422
0.001204986457
0.001202371248
0.001199895845
0.001197499483
0.001195087239
0.00119246485
0.001189915114
0.001187568458
0.001185391887
0.001183291301
0.001181277725
0.001179426033
0.001177726853
0.001176163281
0.001174736577
0.00117339082
0.00117215387
0.001171034114
0.001170059786
0.001169215088
0.001168493784
0.001167897383
0.001167471491
0.001167173726
0.0011669257
0.00116669966
0.001166638681
0.001174658714
0.00124860434
0.002045611929
0.02191291716
34.85174793
0.7742150765
0.05427089257
0.01039887069
0.00362971209
0.002186070062
0.001715609144
0.001520994769
0.001416831721
0.001353617474
0.001312910456
0.001291389886
0.001279474903
0.001274095673
0.00126809029
0.00126262496
0.001257383608
0.001251927517
0.001245836725
0.001239431477
0.001233589323
0.001228102728
0.001222709591
0.001217570534
0.00121293486
0.001208597031
0.001204530409
0.001200778784
0.00119724147
0.001193824205
0.0011906281
0.001187716052
0.001185010028
0.00118247924
0.001180063115
0.001177873177
0.001175851328
0.001174077891
0.001172443237
0.001170949479
0.001169633609
0.001168487905
0.001167494147
0.001166651088
0.00116589406
0.001165198382
0.001164591523
0.001164047028
0.001163559551
0.001163099376
0.001162709064
0.001162302383
0.001161886755
0.00116150513
0.001161408661
0.001164438842
0.001190881962
0.001359951316
0.002683581137
0.02098512434
144.9497229
3.577506232
0.1748705658
0.02782655565
0.01007491769
0.004929286573
0.003181679378
0.002473991942
0.002081057793
0.001832604286
0.001662754164
0.001544820176
0.001461813819
0.001400764674
0.001356582538
0.001324976941
0.001302535362
0.001284624246
0.001269135007
0.001255565404
0.001242825063
0.001231969573
0.001222838191
0.001215078685
0.001208313647
0.001202411485
0.001197248621
0.001192718247
0.001188724276
0.001185168998
0.001181993325
0.001179177057
0.001176667354
0.001174419983
0.001172373419
0.001170545096
0.001168861778
0.001167344255
0.001165959894
0.001164697271
0.001163534726
0.001162485367
0.001161531964
0.001160669119
0.001159952266
0.001159389318
0.001158929497
0.001158515659
0.001158149635
0.001157807067
0.001157505596
0.001157199142
0.001156984242
0.001156842782
0.001157736264
0.001166111057
0.001213632192
0.001473581818
0.003151495304
0.02011721302
1242.037896
69.76430525
2.297352225
0.1618602456
0.03558335043
0.01446793849
0.007678809926
0.00526781596
0.00398623544
0.003173573623
0.002610862491
0.00221322707
0.001931565885
0.001734962491
0.001599951338
0.001507299561
0.001440753293
0.001389977907
0.001350325467
0.001319013856
0.001294695228
0.001275074596
0.001258888858
0.001245314967
0.001233787172
0.001223893066
0.001215389745
0.001208039115
0.001201642976
0.001196045261
0.00119111646
0.001186775097
0.001182960155
0.001179584416
0.001176580872
0.001173943596
0.001171573839
0.001169432702
0.001167524825
0.001165783868
0.001164205661
0.001162816447
0.001161542329
0.00116032179
0.001159149211
0.001158171703
0.001157206851
0.001156325984
0.001155533691
0.001154826348
0.001154188249
0.001153585704
0.001153097653
0.001152906982
0.001154974721
0.00117040089
0.001242153989
0.001587763592
0.003538500551
0.0192987907
4393.614395
425.4628361
22.86825402
1.300232875
0.1738878919
0.05053659756
0.02116038388
0.0126446978
0.008725056457
0.006434723202
0.004907385946
0.003839597954
0.003082357836
0.002552423574
0.0021906078
0.001943981842
0.001773150561
0.001651789967
0.001563234265
0.001496024197
0.001443323785
0.001400747301
0.00136566186
0.001336413892
0.001311810863
0.001290853827
0.00127293456
0.001257509282
0.001244133603
0.001232488232
0.001222292394
0.001213332256
0.001205505664
0.001198616829
0.001192523429
0.00118717706
0.001182423547
0.001178152485
0.001174424754
0.001171261979
0.00116844975
0.001165816379
0.001163420773
0.001161183781
0.001159119367
0.001157369693
0.001155793827
0.001154325588
0.001153000733
0.001151870276
0.001150871979
0.001149967781
0.001149307201
0.001149509821
0.001154232517
0.001177625149
0.001276852253
0.001705508516
0.003866837727
0.01852733623
10215.28774
1830.634142
175.9667571
11.71313286
1.02907143
0.1934573663
0.06166956766
0.03105694421
0.0196372277
0.01370257013
0.009923877243
0.007331362683
0.005505813943
0.004223246776
0.003329016149
0.002716796441
0.002303589311
0.002025716
0.001837478981
0.001705810967
0.001609161487
0.00153481564
0.001475672171
0.001427628144
0.001387956563
0.001354810578
0.001326918211
0.001303188261
0.001282819968
0.001265270771
0.001250072558
0.001236839998
0.001225320251
0.001215211573
0.001206284546
0.001198422765
0.001191484363
0.001185360832
0.00117998208
0.001175248636
0.001171024356
0.001167294365
0.001164098719
0.001161197716
0.001158396637
0.001155753917
0.00115353019
0.001151704253
0.001150080395
0.001148553975
0.001147252112
0.001146157948
0.001145548989
0.001146545419
0.001155102644
0.001188395813
0.001318293506
0.00182803717
0.004168286672
0.01775767497
17848.72475
4489.790333
769.8746937
82.46909843
7.090583867
0.7815909866
0.1932423819
0.07413619006
0.04204309828
0.02766332498
0.01927001522
0.01373143479
0.009899562392
0.007222280467
0.005364011204
0.004091831169
0.003232230653
0.002656052624
0.00227228848
0.002014802635
0.001837184749
0.001709200584
0.001612824621
0.001537606211
0.001477280939
0.001428029845
0.001387274548
0.001353144481
0.001324321309
0.001299791643
0.001278783853
0.0012607143
0.001245104089
0.001231520452
0.001219663168
0.001209298349
0.00120023221
0.001192297552
0.001185334714
0.001179202252
0.001173744386
0.0011689267
0.001164832886
0.001161250406
0.001158026587
0.001154955756
0.001152114331
0.001149632075
0.001147565018
0.001145794912
0.001144337161
0.001143068888
0.001142618312
0.001144995361
0.001157647504
0.001203706774
0.001369979209
0.001956381203
0.00444886941
0.01706225632
25332.79257
8553.002622
2075.947593
375.5309349
47.03216101
4.313900195
0.5802414556
0.1753060166
0.08226231928
0.05009072913
0.03370865747
0.02353890187
0.01666662475
0.01188727251
0.008560757799
0.006268823809
0.004708863242
0.003657198562
0.002956161317
0.002489946789
0.002176129512
0.001959425314
0.001803941059
0.001687507896
0.001597235117
0.001525326033
0.001466910288
0.001418796657
0.001378711297
0.001345012485
0.00131647397
0.001292141888
0.001271277038
0.00125328645
0.001237714136
0.001224208363
0.001212481919
0.001202276885
0.001193347221
0.001185507538
0.001178576813
0.001172447393
0.001166971055
0.001162301651
0.001158438256
0.001155008758
0.00115184681
0.001148858271
0.001146125803
0.001143738179
0.001141902133
0.001140509003
0.001140564849
0.001145263709
0.00116289301
0.001225913491
0.001430973198
0.002095895088
0.004710149309
0.01645636571
33229.74885
13366.43676
4299.158643
1113.478791
230.1544402
26.98266587
2.254954831
0.4083546758
0.15142564
0.08254965729
0.05328896832
0.03665171487
0.02578102779
0.01828251979
0.01302514355
0.009358571552
0.006831197225
0.00510978404
0.003950848206
0.003176092739
0.002657526936
0.002306109445
0.002061739095
0.001885497276
0.001753338889
0.001650817954
0.001569174887
0.001502869368
0.001448269341
0.001402847665
0.001364711342
0.001332460597
0.001305008886
0.001281511512
0.001261338427
0.001243942617
0.001228899207
0.001215837876
0.001204457361
0.001194520212
0.001185812774
0.001178173601
0.001171465145
0.001165461492
0.001160294318
0.00115593554
0.00115222512
0.001148914898
0.001145881463
0.001143055366
0.001140751499
0.001139323965
0.001140287607
0.001146792962
0.001171275006
0.001252349957
0.001492020765
0.002227860123
0.00495455851
0.01554174035
40632.04855
18728.92425
7257.455516
2419.305952
668.6725804
129.8485196
10.98647796
1.048275002
0.2800475387
0.1298478791
0.07904607533
0.05326536559
0.03727600032
0.02642818126
0.01882260581
0.01345963517
0.009704035888
0.007105435384
0.005330423707
0.004129997708
0.003322177843
0.002776653964
0.00240354172
0.002141753447
0.001951385569
0.001807739685
0.001695788994
0.001606375401
0.001533662725
0.001473781545
0.001423932528
0.001382110303
0.001346762104
0.001316705055
0.00129098018
0.00126885821
0.00124975897
0.001233254238
0.001218943564
0.001206505089
0.001195668037
0.001186191311
0.001177924196
0.001170677226
0.001164340078
0.001158671834
0.001153796418
0.001149693998
0.001146221069
0.001143141228
0.001140686546
0.001139358828
0.001141152928
0.001150121967
0.001183369795
0.001281145347
0.001552731687
0.002348120568
0.00515295398
0.01484876934
47559.61497
24775.80158
11091.67358
4418.42464
1545.318666
377.9373485
43.44221505
3.249531731
0.5379783111
0.1994773887
0.1111795932
0.07285904288
0.05075813337
0.03612097832
0.02586253999
0.0185513325
0.01335606178
0.009700786467
0.007158301792
0.005409992458
0.004218215503
0.003408222442
0.002855353278
0.002472806691
0.002201330646
0.002001699716
0.001850033491
0.001731323447
0.001636177708
0.001558654297
0.001494642337
0.00144129376
0.001396454545
0.001358529377
0.001326233824
0.001298630569
0.001274920049
0.001254477766
0.001236813229
0.001221495212
0.001208205543
0.001196614008
0.001186520339
0.00117768032
0.001169956388
0.001163174642
0.001157246295
0.00115198304
0.001147576704
0.001143875893
0.001141139431
0.001139899836
0.001142888558
0.001155326116
0.001197861254
0.00131221452
0.001613519954
0.002459884197
0.00531821473
0.01437569431
53807.79885
30977.06937
15566.74662
7003.421642
2779.381685
830.2277554
128.6719294
10.52545633
1.131884304
0.3106447253
0.1508098379
0.09464266294
0.06530174259
0.04665067512
0.03369408735
0.02438718337
0.01766754077
0.01285266978
0.009436235562
0.007039870875
0.005376677804
0.004231081332
0.003443650571
0.002899516642
0.002517324688
0.002242391874
0.002038257103
0.001881691989
0.001758437337
0.001659198394
0.001578062323
0.001510892844
0.001454799859
0.001407574539
0.00136759985
0.001333566637
0.001304501495
0.001279519894
0.001258014614
0.001239408531
0.001223300107
0.001209283661
0.001197091259
0.001186413006
0.001177165183
0.001169076632
0.00116205146
0.001155850984
0.001150541107
0.001145898741
0.001142656935
0.001141601043
0.001146115902
0.001163418161
0.001214987107
0.001345862724
0.001675896046
0.002569202285
0.005463784282
0.01386393938
59343.28443
37099.0099
20401.3297
10054.8344
4364.421111
1484.845486
285.2281726
28.64755722
2.597348848
0.5047930254
0.2043906077
0.1197047538
0.08078303372
0.05756941561
0.04184493837
0.0305722461
0.02235164871
0.01636965475
0.01204596048
0.008957126445
0.006772573519
0.005241515586
0.004174741878
0.003430912495
0.002908831419
0.002536763836
0.002264873306
0.002060308423
0.001901974744
0.001776357167
0.001674822827
0.001591500823
0.001522346823
0.001464387812
0.001415526717
0.001374105616
0.001338855836
0.001308702671
0.001282792673
0.001260453683
0.001241104715
0.001224292686
0.001209726375
0.001197045089
0.001186085891
0.001176462733
0.00116815054
0.001160837312
0.001154600641
0.001149258333
0.001145756131
0.001145034966
0.001151131895
0.001173743247
0.00123463254
0.001381940037
0.001739570884
0.002676057268
0.005593308233
0.01333454754
64015.63566
43096.47162
25723.25683
13756.44322
6389.389071
2315.589624
519.5186057
67.75833944
6.442074377
0.9117673188
0.2875130963
0.1496346074
0.09702181869
0.06842470327
0.04984282958
0.03669733757
0.02707762782
0.01999907494
0.01480813068
0.01103688924
0.008324616016
0.006392658884
0.005024100998
0.004057643802
0.003373964378
0.002885930621
0.002531660139
0.002268376499
0.002067482234
0.001910333462
0.001784689983
0.001682543734
0.00159836435
0.001528317208
0.001469564089
0.001419952303
0.001377803038
0.001341832069
0.001311006583
0.001284476019
0.001261542786
0.001241704317
0.001224555831
0.001209638068
0.001196727178
0.001185362124
0.00117556623
0.001166986592
0.001159745869
0.001153655659
0.001150001804
0.001149781863
0.001158058785
0.001186072164
0.0012565687
0.001420018074
0.001803737169
0.0027788188
0.005705546546
0.01280047634
68369.1232
49564.88923
32022.32096
18294.89557
8760.371
3164.474922
794.980507
136.8142728
16.14856252
1.905707403
0.4413399801
0.1904830703
0.1147981379
0.07908144525
0.05743111505
0.04250591714
0.03162350967
0.02356380804
0.01757388356
0.01315925872
0.00994261754
0.007618552338
0.005949443986
0.004754339642
0.003899036198
0.003284047621
0.002836841652
0.002505851028
0.002255383267
0.00206132147
0.001907675099
0.001783930894
0.001682804951
0.001599170871
0.00152939065
0.001470665077
0.001420939327
0.001378579045
0.001342365612
0.001311255748
0.001284484378
0.001261341183
0.001241365431
0.001223970743
0.001208915534
0.0011956914
0.001184322327
0.001174375328
0.00116607147
0.0011592188
0.00115559421
0.001156186601
0.001167353487
0.001200648081
0.001280892044
0.00146024083
0.001868890747
0.002877847445
0.005794217245
0.01227214055
72850.73535
56408.69192
38758.89878
22892.30103
10666.64921
3633.545856
984.3616689
222.4743819
37.01570187
4.460951243
0.7685745436
0.2624188222
0.1378423667
0.09013195874
0.06449469235
0.04776865911
0.03578255332
0.0268731932
0.02018046025
0.01520201311
0.01153336971
0.008848371187
0.006896623481
0.005482976122
0.004459181789
0.003715246903
0.003170808098
0.002766872142
0.002461876024
0.002227029286
0.002042585547
0.001894978206
0.001775112625
0.001676516218
0.001594543553
0.001525834713
0.00146783627
0.001418568964
0.001376581144
0.001340567851
0.001309640794
0.001282951908
0.001259926382
0.001239877767
0.00122255666
0.001207392066
0.001194353335
0.001182953094
0.00117349928
0.001165934481
0.001162407772
0.001164096709
0.001178380774
0.001217313228
0.001307430069
0.001502466103
0.001935084774
0.002974425558
0.005865760165
0.01175839952
77099.81465
62817.51685
44434.36999
25445.31577
10852.29766
3526.380538
1053.217341
316.7441571
73.18076888
11.15310847
1.608951142
0.4209004734
0.1786848229
0.1045765272
0.07182229443
0.05269092234
0.03957230442
0.02990701147
0.02262034045
0.01714585378
0.01306536629
0.01005247545
0.007839917859
0.006219934888
0.00503431032
0.004164837578
0.003523379279
0.003045097411
0.002683490229
0.002405359468
0.002187715887
0.002014377441
0.001874166348
0.001759363688
0.001664317695
0.001584951933
0.00151814032
0.001461541399
0.00141337043
0.001372163459
0.001336842968
0.001306375443
0.001280095341
0.001257260481
0.001237536942
0.001220316322
0.001205527148
0.00119261239
0.001181998093
0.001173872997
0.001170569634
0.001173602628
0.001191242576
0.001236132596
0.001336140075
0.001546194424
0.002000624064
0.003062640608
0.005905185545
0.01125667096
81583.88638
68238.65178
46183.3374
23892.05987
8981.03087
2936.074905
1058.17599
404.9632876
127.3962798
27.46447833
4.370833049
0.8547182462
0.2795566796
0.1314717504
0.08156491742
0.05784761126
0.04321611166
0.03280979082
0.02498290274
0.01904926585
0.01458315089
0.0112522547
0.008783931163
0.006962426332
0.00561909933
0.00462591305
0.003887676648
0.003334350789
0.002914684535
0.002591959732
0.002339693404
0.002139377403
0.001978047265
0.001846343567
0.001737650701
0.001647131656
0.001571131351
0.00150688969
0.001452350963
0.00140573187
0.001365779204
0.001331351655
0.001301679317
0.001275931513
0.001253714246
0.001234332791
0.001217714835
0.001203247688
0.001191508073
0.001182975976
0.001180012144
0.001184639004
0.001205891867
0.001256976562
0.001366907348
0.001591568241
0.002066320638
0.003146226361
0.005923793232
0.01076531919
89852.183
68562.47506
39629.07967
16601.18921
6242.939843
2542.27885
1134.054803
519.0250944
211.7477997
61.48449464
13.80269514
2.647009527
0.6048175747
0.208687276
0.101752871
0.06528966395
0.04739976208
0.03590330457
0.02748078665
0.02107960704
0.01621105808
0.01253919099
0.009793931366
0.007751679664
0.006235247582
0.005107994529
0.004266714104
0.003634172937
0.003153946005
0.002784763794
0.002496709133
0.002268663177
0.002085478145
0.001936368802
0.001813664287
0.001711693043
0.001626280122
0.001554225025
0.00149311227
0.001440873129
0.001396150915
0.001357618199
0.001324474699
0.001295726318
0.001270935975
0.001249321384
0.001230818138
0.001214836216
0.001202023618
0.001193240086
0.001190737807
0.001197173495
0.001222294208
0.00127978237
0.00139967919
0.001638649505
0.002132641465
0.003225882009
0.005920119014
0.01029101108
89086.88184
55600.13487
27810.38109
12377.25317
5546.66586
2648.990914
1352.058939
693.1469859
330.4616694
132.2657513
38.52863852
9.32288677
1.975725839
0.4699293045
0.1646040061
0.08156666618
0.05346241033
0.039483006
0.03022932291
0.0233333232
0.01804366237
0.01400292578
0.01094026085
0.008639329862
0.006918305479
0.005633019507
0.004672151692
0.003950316344
0.003403228922
0.002984041113
0.002658117187
0.002401104772
0.002195318432
0.002028406902
0.001891443837
0.001777839079
0.001682864083
0.001602810075
0.001534964943
0.001477077495
0.00142758976
0.001384954853
0.00134829177
0.001316460901
0.001289043974
0.001265159622
0.001244781194
0.001227290916
0.001213510481
0.001204685688
0.001202790499
0.00121130368
0.001240478649
0.001304418867
0.001434027359
0.001686418722
0.00219710012
0.003297347657
0.00590369754
0.009828359303
78140.66026
45931.04451
23643.36501
11643.86737
5843.444519
3113.508488
1724.882445
954.0123032
508.4329128
247.3355948
99.28464036
29.50019268
7.405936927
1.621769289
0.3823792702
0.1341895904
0.06692291052
0.04443337076
0.03324257296
0.02571833651
0.02004002255
0.01564215348
0.01225233568
0.009664502738
0.0077062336
0.006233059072
0.00512853928
0.004298364382
0.003671851671
0.003194132293
0.002825590695
0.002536918242
0.002307128218
0.002121776386
0.001970225339
0.001844826619
0.001740184391
0.001652137637
0.001577589284
0.001514052354
0.001459778966