/*--------------------------------*- C++ -*----------------------------------*\
  =========                 |
  \\      /  F ield         | OpenFOAM: The Open Source CFD Toolbox
   \\    /   O peration     | Website:  https://openfoam.org
    \\  /    A nd           | Version:  10
     \\/     M anipulation  |
\*---------------------------------------------------------------------------*/
FoamFile
{
    format      ascii;
    class       volScalarField;
    location    "0.0250188088";
    object      epsilon;
}
// * * * * * * * * * * * * * * * * * * * * * * * * * * * * * * * * * * * * * //

dimensions      [0 2 -3 0 0 0 0];

internalField   nonuniform List<scalar> 
5170
(
6422.354241
6432.646426
6534.345065
7922.663737
34068.53433
5472.298858
5482.674866
5645.534313
9099.629919
52688.01166
4740.647751
4788.565624
5290.662989
10745.06605
77186.752
4155.166364
4257.924791
5083.07115
12219.12399
94821.05532
3677.384983
3845.786514
4936.991426
13762.939
115597.6453
3308.119642
3492.35902
4816.527521
15034.28745
128622.3554
2996.988418
3189.58931
4744.464763
15940.86647
134965.4032
2728.898311
2989.43669
4619.013324
16662.15986
138751.0621
2508.685185
2808.340024
4514.192873
17233.26925
140567.6741
2321.049097
2647.062871
4424.096999
18057.83895
140935.4178
2166.146305
2503.820531
4333.210383
19108.53105
140340.0634
2028.290961
2379.30016
4289.164887
20103.26582
139185.1965
1901.320058
2274.792673
4314.961991
21256.24784
137735.7492
1795.217623
2186.90158
4413.811714
22718.2747
136160.3773
1688.848904
2119.063054
4559.447575
24219.97797
134560.8028
1617.925746
2063.73965
4811.963956
26025.45715
133033.584
1528.0368
2029.011664
5099.400118
27792.25428
131668.418
1485.946314
2015.000423
5554.161424
29943.23502
130540.3347
1406.251279
2055.024339
6137.75045
32538.24565
129461.7006
1406.723844
2231.979235
7516.57464
39781.27779
118298.8765
1079.402337
268.7718358
181.9053275
348.835542
1140.91711
517.2657299
257.1533321
185.7149738
291.3814332
440.8146313
282.0784405
220.8577929
175.3351768
201.0598282
194.8103357
185.7653261
162.8647837
155.4575438
205.1220625
130.3082912
148.3694713
143.5843999
142.262928
252.603459
131.5880738
125.7416294
134.1351227
145.6604756
358.6744528
158.6126835
119.0583031
141.506762
164.7346807
592.3735622
228.7567414
119.734107
158.2478898
211.815335
1027.466647
343.0969894
125.1179936
180.124665
276.0447874
1464.942141
471.5423138
132.5801935
203.1978055
345.0464585
1828.954235
592.4459835
140.139484
224.0790249
415.5965887
2159.175473
709.5486112
148.263759
244.4209656
482.1631613
2433.400094
813.5942644
155.253003
259.7486179
544.0820068
2673.038648
908.6499942
162.8392646
274.5059805
598.1178388
2824.409965
983.2198754
169.5551649
285.2618462
653.2155698
3006.73445
1072.00756
178.2479794
297.8524609
708.5353091
3216.162476
1155.153624
186.4288325
305.5521928
759.5188083
3276.813292
1187.657196
203.9685025
315.1638019
818.9543657
3378.077222
1236.336987
242.9749669
327.5816997
910.6254991
3425.455945
1279.152769
2186.422517
676.9943937
1369.812166
3556.807754
1307.08688
1384.852895
2306.046543
8354.384214
37109.66837
73864.44542
1374.585663
2389.071247
9060.466353
35041.50185
63314.86736
1373.601533
2512.664077
9813.26275
33965.90886
63922.42416
1385.971607
2668.305978
10462.945
33806.6443
65812.80946
1418.514334
2889.464738
11267.57939
34344.68672
65793.11687
1483.101771
3222.320402
12418.73855
35741.86996
65027.41544
1590.794379
3721.771065
13967.00856
37142.92178
63379.3879
1754.861182
4383.550763
15646.42962
38159.65781
61687.03475
1998.008975
5267.503048
17527.38585
38783.37366
60008.48523
2333.768442
6385.3272
19275.85379
38833.57825
58059.49174
2809.589432
7775.155381
21195.02293
38870.09493
56402.13714
3502.217829
9503.478762
22926.34318
38798.96531
54568.26503
4908.684756
11639.9694
24356.89506
38702.50402
53003.93663
6608.858912
13463.17176
25397.9131
38540.38424
51627.87835
9083.38815
15369.55561
26160.18133
38088.12447
49886.96522
11285.14879
16707.9958
26341.86983
37304.39883
48381.73569
13368.90411
18049.83641
26714.04784
36891.10935
47240.62397
15970.97315
19863.38095
27232.84564
36211.84552
45596.71538
17857.47045
21047.33068
27519.53604
35847.64452
45011.78615
19437.47944
22467.50606
28604.13884
36942.72792
46731.20406
23500.14119
26646.99781
33215.59919
42929.54035
55179.04742
36193.10378
40077.48795
48630.11233
60572.94855
74317.26166
60053.68094
62610.77256
68039.22818
75439.33986
83470.16916
67023.13757
68380.79405
71312.77062
75407.98318
79986.22539
63534.50169
64264.48056
65585.23319
66787.20463
67210.69194
50105.7469
49851.80052
49329.89183
48676.63652
47929.39554
33799.14297
33694.02998
33435.69669
33015.81301
32415.46258
22462.57701
22397.25119
22227.34116
21947.92027
21552.62689
14994.18035
14950.98169
14845.03103
14673.83615
14435.88349
10206.10562
10181.95837
10120.64915
10022.02141
9885.773857
7148.249419
7134.103615
7099.403879
7043.883041
6967.385593
5151.571535
5144.286361
5125.221019
5094.481996
5051.883094
3812.970101
3808.645616
3798.029427
3780.897356
3757.055125
2890.598172
2888.591296
2882.844642
2873.383587
2860.032771
2247.025892
2245.746619
2242.507155
2237.161455
2229.550608
1791.028257
1790.476277
1788.676388
1785.625948
1781.194716
1463.237922
1462.808471
1461.701481
1459.835536
1457.101216
1220.543221
1220.348847
1219.661062
1218.465811
1216.681285
1035.34731
1035.14989
1034.652674
1033.811799
1032.557435
888.8196638
888.7195225
888.3670631
887.7594046
886.8428291
769.8704123
769.7555548
769.4749227
769.0067861
768.3062866
670.9514825
670.8921355
670.682779
670.3266729
669.788699
587.658181
587.5873377
587.4166541
587.1339219
586.7110059
516.6095871
516.5743839
516.4462408
516.2287751
515.9000875
455.7045249
455.660924
455.5559976
455.3824107
455.1227049
403.0925334
403.0722447
402.9941451
402.8611928
402.6593171
357.5607008
357.5341714
357.4702267
357.3642275
357.2047671
317.9445035
317.9316643
317.8843937
317.8036871
317.6801308
283.4226066
283.4066481
283.3679899
283.3036585
283.2061219
253.2118191
253.2050687
253.1770031
253.1285166
253.053402
226.7141517
226.7048678
226.6818896
226.6433553
226.5842032
203.3882684
203.3851922
203.369037
203.3405686
203.2956132
182.8286526
182.8236409
182.8105879
182.7883052
182.7534008
164.6435508
164.6426345
164.6338458
164.6178166
164.5916949
148.5479068
148.5453519
148.5383068
148.5259378
148.5059078
134.250467
134.2507211
134.2463358
134.237844
134.223242
121.5430657
121.5420068
121.5385572
121.5321784
121.5212534
110.203063
110.2039105
110.2021323
110.1981423
110.1905568
100.0830264
100.0827698
100.0814551
100.0786859
100.0733305
91.01065192
91.0117741
91.01152671
91.01024719
91.00695598
82.89607583
82.89622377
82.89613737
82.8954987
82.89351958
75.58207476
75.58326363
75.58385343
75.58410811
75.58334964
69.04174778
69.04214242
69.04274198
69.04330889
69.0432882
63.08652128
63.08766696
63.08867599
63.08975504
63.09041874
57.8190497
57.81955719
57.82047406
57.82163599
57.82264447
52.88034626
52.88139225
52.88255796
52.88400697
52.88538888
48.7451322
48.74560586
48.74650029
48.74770524
48.74893044
44.36273327
44.36381111
44.36531283
44.36734203
44.36963273
41.63116272
41.63152767
41.63213576
41.63290106
41.63357074
36.68580219
36.68624995
36.68707476
36.68828855
36.68991935
21066.52265
71820.24585
86097.89427
86089.21279
84101.32877
81551.96236
78535.97361
75591.29025
72664.95825
69563.34489
66903.20335
64085.34807
61693.99559
59605.88835
57176.91345
55264.91317
53724.51828
51623.44247
51217.47123
53729.86223
64569.00721
83011.80116
88474.08333
82599.02231
66906.10327
47309.47104
31937.26518
21246.46475
14254.60113
9782.673584
6909.676722
5019.777325
3739.140181
2849.990577
2223.799872
1777.776797
1454.930607
1215.206693
1031.485335
886.0351905
767.6801171
669.3008021
586.3262783
515.5986329
454.8848322
402.4732321
357.0580416
317.5656879
283.1159841
252.9832296
226.5292115
203.2531947
182.7204601
164.5666441
148.486704
134.2089112
121.5104978
110.1828046
100.0677955
91.0032826
82.89115347
75.58207251
69.04280332
63.09054915
57.8231785
52.88625565
48.74975544
44.37131368
41.63395299
36.69147172
57238.62886
13539.08312
3510.798251
2994.32074
688.825101
100799.3179
56688.43815
14539.80082
4193.12935
836.361079
111929.1008
92205.97192
42692.1446
12584.35212
2431.316543
110319.3706
105850.4077
75078.46164
34494.87204
8848.772837
106601.4147
111791.9919
93493.25063
54127.15669
21331.37574
103005.6108
113097.0814
102137.2364
68817.02112
33961.38881
98308.62317
111455.034
104565.6958
78499.10242
44974.58543
93828.67601
107723.0986
104325.5743
84837.49502
54175.80986
89394.16449
103421.1864
103095.9135
89209.80113
62381.91142
84850.81176
98852.71865
101156.5677
91080.10741
68550.74032
80884.34842
94437.26527
98044.6698
91134.52337
72964.64741
76825.35558
89875.85775
94660.73496
90566.01839
76581.77034
73341.70539
85853.72538
91486.44703
89483.02596
79179.42115
70374.00798
82495.3364
88714.18608
88258.16802
80721.53754
67069.46735
78683.98526
85534.26779
86836.91484
81634.24776
64591.95119
75810.40594
82988.68889
85452.97678
82525.90871
62604.65646
73662.5964
81097.93249
84538.9946
83506.91902
59937.37698
70989.78565
79300.30734
84409.47058
85426.74329
59841.93486
71920.3213
82138.86577
89897.67769
93654.8535
63567.42035
79489.99939
95246.50801
106166.119
105760.6691
77586.82339
98527.84954
112830.7878
114917.7976
103971.5041
94330.98681
107693.3291
112816.3653
108075.1338
91286.35123
95110.58693
102633.6135
102046.1174
91173.69763
74594.97241
85893.96827
85957.54762
80494.76434
70650.12159
58280.5522
66658.63578
64306.03375
59309.34613
52132.7881
43766.50178
46671.3675
44463.94461
40919.38344
36321.78853
31156.42477
31437.52222
29933.96508
27711.10177
24941.10229
21865.0499
20926.8872
20010.07868
18696.04871
17081.26883
15285.8967
14066.25466
13533.99505
12777.94102
11849.02616
10807.08444
9676.367131
9374.471924
8943.752715
8409.901755
7802.39594
6851.072737
6681.079831
6435.122421
6125.615549
5766.820888
4988.151001
4892.334238
4750.414261
4568.191744
4352.447698
3722.340881
3667.931377
3584.808997
3475.579186
3343.372023
2841.126329
2809.831498
2760.293209
2693.591611
2611.0679
2218.924996
2200.409237
2170.181969
2128.562342
2075.997314
1774.827695
1763.34494
1744.2783
1717.56032
1683.195045
1452.877533
1445.284806
1432.710524
1414.90905
1391.677396
1213.622187
1208.275341
1199.572104
1187.205975
1170.899349
1030.189716
1026.224526
1019.923781
1010.982795
999.1156218
884.9701455
881.939642
877.2258226
870.5540885
861.6615855
766.8064699
764.4465507
760.8369246
755.7416837
748.9316576
668.595885
666.7465922
663.9461514
659.9976025
654.7071968
585.7604304
584.3039486
582.1118772
579.0216837
574.8716976
515.1504628
514.0043827
512.2815524
509.8490984
506.5734881
454.5300915
453.6263307
452.2672884
450.3443859
447.7474262
402.1951768
401.4842562
400.4111428
398.8874248
396.8223494
356.8392945
356.2786386
355.4293343
354.2189647
352.572645
317.3948885
316.9537483
316.2813628
315.3184658
314.003238
282.9818926
282.633813
282.1003449
281.33273
280.2797391
252.8792804
252.6057215
252.1827624
251.5703049
250.7259274
226.4479508
226.2324653
225.8966086
225.4071995
224.7289823
203.1911242
203.0227494
202.7568854
202.3661147
201.8211685
182.6728232
182.5411869
182.3306675
182.0184622
181.5801695
164.5306813
164.4284433
164.262139
164.012816
163.6601172
148.4594697
148.3800805
148.2487503
148.0496234
147.7656505
134.1888362
134.12779
134.0244617
133.8656007
133.6369266
121.4957549
121.4489577
121.3678011
121.2411532
121.0570093
110.1724856
110.1371394
110.0737129
109.9728795
109.8245533
100.060795
100.0344574
99.98524312
99.90530483
99.78614122
90.99897305
90.97978654
90.94186254
90.87861396
90.78287354
82.88882867
82.87523889
82.84639974
82.79674589
82.72021271
75.58129048
75.57200286
75.55020745
75.51121336
75.44989743
69.04314745
69.03730531
69.0212987
68.99114879
68.94250584
63.09170235
63.08835258
63.07666397
63.0532698
63.01448405
57.82485137
57.82343191
57.81525692
57.79744592
57.76684982
52.8883183
52.88831956
52.88280426
52.86933298
52.84522409
48.75171956
48.75212104
48.74790023
48.73698084
48.71707983
44.37444809
44.37751786
44.37704178
44.37122725
44.35807517
41.63518759
41.63450867
41.6296772
41.61916761
41.60145947
36.69441973
36.69878121
36.70275948
36.70617995
36.70868651
14.59874203
0.3172759469
0.02006586369
0.003810825242
0.001757692329
0.00139105659
0.001282273498
0.001239500825
0.001218027245
0.001205548016
0.001198028762
0.001194275779
0.001193206177
0.00119511407
0.001200167981
0.001205100676
0.001209167954
0.001212552146
0.001215319106
0.001217324219
0.001218259557
0.001218307391
0.001217727382
0.001216710452
0.001215323023
0.001213613875
0.001211799724
0.001209895905
0.001207607791
0.001205036993
0.001202429388
0.001199958761
0.001197568363
0.001195159473
0.001192537265
0.001189985534
0.001187637855
0.001185459449
0.001183354371
0.001181335539
0.001179478664
0.001177773768
0.001176204391
0.001174773639
0.001173422566
0.001172179145
0.001171054418
0.001170075337
0.001169226866
0.001168501482
0.001167901903
0.001167472354
0.001167172617
0.001166925024
0.001166701839
0.001166641155
0.001174664561
0.001248616949
0.002045623429
0.02191292098
34.85317606
0.7740081468
0.05422528721
0.01038553472
0.003625892491
0.00218418844
0.001714335882
0.001520080635
0.001416168664
0.001353130453
0.001312527702
0.00129106287
0.001279213776
0.0012739701
0.001268093338
0.001262684023
0.001257478665
0.001252049786
0.001245983391
0.001239600195
0.001233774503
0.001228300075
0.001222912912
0.001217769438
0.001213143013
0.001208807671
0.001204739299
0.001200984201
0.001197441325
0.001194017188
0.001190813081
0.001187892049
0.0011851763
0.001182635562
0.001180206946
0.001178007942
0.001175976635
0.001174192764
0.001172547753
0.001171043938
0.001169718833
0.001168564309
0.001167562661
0.0011667121
0.001165947405
0.001165244549
0.001164630883
0.001164080623
0.001163587938
0.001163123338
0.001162729189
0.001162320028
0.001161901434
0.001161515931
0.001161414007
0.001164444071
0.001190894572
0.001359981444
0.002683601326
0.02098512215
144.901
3.574206776
0.1746739635
0.02779176864
0.01006172397
0.004922611358
0.003177212476
0.002470729446
0.00207880049
0.001831065028
0.001661724856
0.001544153058
0.00146140277
0.001400501382
0.001356420998
0.001324883953
0.001302485786
0.001284620732
0.00126917155
0.001255631053
0.001242893335
0.001232031642
0.001222894149
0.001215134036
0.001208359572
0.001202453256
0.001197286957
0.001192753305
0.001188756344
0.001185198332
0.001182020415
0.001179202334
0.001176691167
0.001174442724
0.001172395642
0.001170566874
0.001168881804
0.001167362314
0.001165975992
0.001164711497
0.001163547467
0.001162496697
0.001161541967
0.001160678882
0.001159961579
0.0011593978
0.001158937086
0.001158522551
0.001158155725
0.001157812269
0.001157509925
0.001157202591
0.001156986725
0.001156844332
0.001157737752
0.001166115547
0.001213643153
0.001473598712
0.003151448655
0.02011723262
1240.757359
69.69977014
2.295323853
0.1616755886
0.03553616597
0.01444871675
0.007666349964
0.005259357931
0.003980367359
0.0031693976
0.0026079085
0.002211157511
0.001930110871
0.001733879513
0.001599098264
0.001506591089
0.001440167718
0.001389494243
0.001349920823
0.00131866588
0.001294397305
0.001274820053
0.001258669995
0.001245126768
0.001233629135
0.001223760804
0.001215278568
0.001207945374
0.001201564061
0.001195979146
0.001191061915
0.00118673132
0.001182925819
0.001179557196
0.001176559316
0.001173926321
0.001171559997
0.001169421032
0.00116751423
0.001165771654
0.001164195489
0.001162808435
0.001161536264
0.001160315946
0.001159143888
0.001158167903
0.001157204677
0.001156325194
0.001155533918
0.001154827201
0.001154189482
0.001153587054
0.00115309906
0.001152908204
0.001154976654
0.001170404133
0.001242160751
0.001587754577
0.003538267852
0.01929880848
4392.708762
425.34457
22.85024748
1.297853189
0.1735960249
0.05047347511
0.02112649309
0.01262321464
0.008710596178
0.006424826019
0.004900640398
0.003834988003
0.003079149092
0.002550106041
0.002188872137
0.001942662882
0.001772111519
0.001650931787
0.001562497703
0.001495381198
0.001442766116
0.001400263836
0.00136524109
0.001336046611
0.001311486021
0.00129056528
0.001272678333
0.001257282316
0.001243933154
0.001232311805
0.001222137459
0.001213196617
0.00120538733
0.001198514139
0.001192435201
0.001187102068
0.001182360776
0.001178101702
0.001174384764
0.001171233311
0.001168427439
0.001165799604
0.001163408289
0.001161176219
0.001159114945
0.001157368907
0.001155794505
0.001154327217
0.001153002978
0.001151872883
0.001150874728
0.001149970321
0.001149309442
0.001149511515
0.001154233401
0.001177626048
0.001276849624
0.001705460544
0.003866392949
0.01852739667
10219.63497
1831.012848
175.9292827
11.69597072
1.027389041
0.1932456615
0.06160773826
0.03101001756
0.01960362583
0.01367934899
0.009908460797
0.00732125593
0.005499242459
0.004218982483
0.003326229388
0.002714893612
0.00230221598
0.002024674926
0.001836657126
0.001705145126
0.001608612249
0.001534355919
0.001475285028
0.001427301784
0.001387679294
0.001354573441
0.001326716618
0.001303016371
0.001282672691
0.001265145317
0.001249966101
0.001236749274
0.001225243088
0.001215146393
0.001206229955
0.001198377342
0.001191446858
0.00118533004
0.001179957139
0.001175229046
0.001171009567
0.001167283469
0.001164090294
0.001161191243
0.001158393319
0.001155751689
0.001153529638
0.001151704464
0.001150080948
0.001148555089
0.00114725324
0.001146158961
0.001145549686
0.001146545736
0.001155101897
0.001188391823
0.001318274727
0.001827947767
0.004167751534
0.01775774343
17857.09926
4491.282967
769.9261629
82.33439698
7.074552644
0.7810038471
0.1931604376
0.07406756442
0.04199178962
0.02762858433
0.01924683001
0.013716229
0.009889732362
0.007215945979
0.005359874158
0.004089030052
0.00323024772
0.002654587515
0.002271151567
0.002013889413
0.001836440133
0.001708585479
0.001612311607
0.001537176628
0.001476919016
0.001427723481
0.001387014752
0.001352923042
0.001324132943
0.001299631409
0.001278646909
0.001260597708
0.00124500496
0.001231435962
0.001219591412
0.001209237465
0.001200180729
0.001192254079
0.001185298269
0.001179171957
0.00117371958
0.001168907317
0.001164818558
0.001161239804
0.001158016701
0.001154946666
0.00115210704
0.001149626776
0.00114756108
0.00114579201
0.001144334681
0.00114306677
0.001142616065
0.001144991762
0.001157643078
0.001203694438
0.001369933327
0.001956255036
0.00444833444
0.01706179923
25329.82969
8551.559611
2074.464851
374.581816
46.87807496
4.311064388
0.5806731429
0.1753726414
0.08223041057
0.05005671815
0.03368296225
0.02352137781
0.0166551631
0.01187987401
0.008555909389
0.006265533461
0.004706522819
0.003655435887
0.002954767166
0.002488818162
0.002175195166
0.00195864317
0.001803283386
0.00168695218
0.001596765693
0.0015249278
0.00146657104
0.001418507141
0.001378464172
0.001344801035
0.001316292772
0.001291986923
0.001271144019
0.001253172505
0.00123761657
0.001224124613
0.001212410191
0.001202215482
0.001193294907
0.001185463111
0.001178539287
0.001172415418
0.001166944606
0.001162281468
0.001158422445
0.001154995608
0.001151834425
0.001148846862
0.001146116279
0.001143730735
0.001141895771
0.001140503233
0.001140558769
0.001145257722
0.001162883895
0.001225890961
0.001430919376
0.002095745309
0.00470967196
0.01645701695
33216.77228
13362.36755
4296.847751
1111.612759
229.4490005
26.96630169
2.261548301
0.4092503572
0.1515791477
0.08255446323
0.0532741792
0.03663792666
0.02577124118
0.01827604851
0.0130208902
0.009355614201
0.006828985654
0.005108010619
0.003949365903
0.003174831145
0.00265644759
0.002305189132
0.002060953016
0.001884827099
0.001752767203
0.001650330063
0.001568758758
0.0015025135
0.001447964737
0.001402586602
0.001364487248
0.001332268034
0.001304842998
0.001281368643
0.001261215185
0.001243836292
0.001228807685
0.001215759006
0.001204389676
0.001194462081
0.001185763008
0.001178130993
0.001171427978
0.001165428641
0.001160267595
0.001155914911
0.001152208319
0.00114890047
0.001145867907
0.001143042836
0.001140740145
0.00113931358
0.001140277811
0.001146783592
0.001171260792
0.001252325412
0.001491974047
0.00222775338
0.004954224697
0.01554225848
40629.09889
18726.64688
7252.910825
2415.122699
667.1563961
129.997318
11.05613921
1.053504225
0.2807986827
0.1299765084
0.07907171186
0.05326767711
0.03727383729
0.02642584579
0.01882089951
0.01345824096
0.009702745005
0.007104131253
0.00532911209
0.004128778449
0.003321048667
0.002775636718
0.002402647114
0.002140979582
0.001950718679
0.001807166581
0.00169529867
0.001605955996
0.001533303122
0.001473472895
0.001423667254
0.001381881946
0.001346565148
0.001316534915
0.001290833189
0.001268731134
0.001249649114
0.001233159312
0.001218861444
0.00120643417
0.001195606728
0.001186138398
0.001177878437
0.001170637649
0.001164305386
0.00115864153
0.001153771557
0.00114967408
0.001146204137
0.00114312625
0.001140672681
0.001139346274
0.001141140615
0.001150109118
0.001183352085
0.00128111981
0.00155269018
0.002348043449
0.005152710045
0.01484813941
47549.99646
24766.6857
11081.80602
4411.364536
1542.386301
378.6033245
43.83011922
3.274058867
0.5402431573
0.199947683
0.1113038113
0.0728988018
0.0507729439
0.0361276917
0.02586605801
0.01855322062
0.01335677447
0.00970067288
0.007157663222
0.005409066727
0.004217184373
0.003407187061
0.002854385599
0.002471940187
0.002200571472
0.002001042003
0.001849468351
0.001730838819
0.001635762038
0.001558297733
0.001494336039
0.001441030459
0.001396227875
0.001358334008
0.001326065106
0.001298484686
0.001274793475
0.001254368089
0.001236717935
0.001221412588
0.001208133712
0.00119655171
0.001186466179
0.001177633483
0.001169915709
0.001163139191
0.001157214748
0.00115195543
0.001147553338
0.001143856557
0.001141122391
0.001139884856
0.00114287309
0.001155309691
0.001197840073
0.001312186869
0.001613479451
0.002459823291
0.005318065458
0.01437529645
53789.62839
30961.38021
15550.27688
6992.689945
2776.07377
833.0383096
130.1098517
10.67139739
1.141883693
0.3121056768
0.1511447643
0.09475141532
0.06534656932
0.04667309211
0.03370671157
0.02439476854
0.01767178717
0.01285474131
0.009436984602
0.007039734871
0.005375999177
0.00423017455
0.003442692435
0.002898599116
0.002516489962
0.002241655133
0.002037618089
0.001881141769
0.001757964784
0.001658793167
0.001577714667
0.001510594417
0.001454543303
0.001407353842
0.001367409635
0.001333402272
0.001304359146
0.001279396184
0.001257907208
0.001239315001
0.001223218793
0.00120921289
0.001197029656
0.001186359439
0.001177118389
0.001169035754
0.001162015388
0.001155819226
0.001150512692
0.001145873707
0.001142634414
0.001141580388
0.001146096237
0.001163397443
0.001214962391
0.001345832342
0.001675852912
0.002569145895
0.005463687342
0.01386375147
59322.91835
37071.80452
20376.81571
10039.50146
4360.902109
1490.632046
288.7871867
29.14892133
2.633488405
0.5085463405
0.2051152943
0.1199272212
0.08087539807
0.05761633277
0.0418717081
0.03058848012
0.02236150972
0.01637509514
0.01204876942
0.008958399078
0.006772707088
0.005240994904
0.004173950357
0.003430033229
0.002907967235
0.00253597372
0.002264172609
0.002059699153
0.001901450302
0.001775907157
0.001674437159
0.001591170065
0.001522062852
0.001464143757
0.001415316599
0.001373924161
0.001338698873
0.001308566353
0.001282674227
0.001260350393
0.00124101478
0.00122421424
0.001209657742
0.001196985025
0.001186033077
0.001176416636
0.001168109986
0.001160801682
0.001154568902
0.001149230278
0.001145730361
0.001145011482
0.001151108943
0.00117371953
0.001234605432
0.001381907838
0.001739529595
0.002676013003
0.0055932632
0.01333449398
63977.10425
43043.93722
25673.79771
13726.56832
6386.290526
2328.342676
527.0671948
69.12658585
6.565326615
0.9225055013
0.2892090428
0.1500726974
0.09719193809
0.06850930488
0.04989065031
0.03672609525
0.02709543138
0.02000963884
0.01481413242
0.01104027333
0.008326080996
0.006392854137
0.005023682852
0.004056925552
0.003373149452
0.002885129174
0.00253092352
0.002267724641
0.002066916059
0.001909846621
0.001784273082
0.00168218721
0.001598059067
0.001528055292
0.001469338563
0.001419757703
0.001377634633
0.001341686098
0.001310879499
0.001284365274
0.001261445846
0.001241619486
0.001224481127
0.001209572528
0.001196669374
0.001185311587
0.001175521515
0.001166947235
0.001159710456
0.001153624399
0.001149972786
0.001149755203
0.001158032792
0.001186045604
0.001256539269
0.001419985063
0.001803699227
0.002778792341
0.005705578906
0.01280050352
68268.45907
49443.23269
31923.97495
18252.85978
8775.454512
3196.255605
809.0257915
139.6631188
16.50555829
1.938503715
0.4452126978
0.1913057826
0.1150865364
0.07921771047
0.05750554338
0.0425502878
0.03165088382
0.02358041438
0.01758402602
0.01316545716
0.009945795481
0.007619769209
0.005949599404
0.004753928533
0.003898370938
0.00328330218
0.002836112601
0.00250518448
0.002254794729
0.002060812007
0.001907237887
0.001783556732
0.001682484838
0.001598896507
0.001529154915
0.001470462026
0.00142076383
0.001378426869
0.001342233109
0.001311139997
0.001284382786
0.00126125184
0.001241286554
0.001223901246
0.001208853939
0.001195637102
0.001184273772
0.001174332586
0.001166033016
0.001159184651
0.001155562072
0.001156156893
0.001167324065
0.001200618852
0.001280860371
0.001460206719
0.001868854359
0.002877833024
0.005794310957
0.01227220426
72715.35757
56269.94414
38663.5368
22902.04114
10755.68282
3698.151782
1004.581531
226.9988088
37.81282523
4.556499492
0.7780228031
0.2639902904
0.1383028627
0.09033328912
0.06459959076
0.04782829337
0.03581800745
0.02689621445
0.02019552199
0.01521100686
0.01153822185
0.008850727167
0.006897502294
0.005482992343
0.004458758572
0.003714634361
0.003170144607
0.002766234157
0.002461297405
0.002226520433
0.002042144874
0.001894599513
0.001774788258
0.001676238224
0.001594304882
0.001525629082
0.00146765848
0.001418414511
0.001376446303
0.001340449689
0.001309536641
0.001282860001
0.001259844802
0.001239805598
0.001222492442
0.001207334978
0.001194302139
0.001182907573
0.001173458133
0.001165897694
0.001162372986
0.001164064481
0.001178348762
0.00121728169
0.001307396728
0.001502432193
0.001935053815
0.002974431371
0.005865918243
0.01175846899
76911.0023
62651.11512
44418.81455
25618.69844
11033.43808
3608.262997
1075.250478
322.0988267
74.49171956
11.37671694
1.631836087
0.4236396375
0.1793608125
0.1048461791
0.07195542019
0.05276599971
0.03961834161
0.02993628208
0.02263886407
0.01715718894
0.01307195686
0.01005603688
0.007841575339
0.006220473685
0.005034225907
0.004164437391
0.003522849103
0.00304454229
0.002682963136
0.002404883083
0.002187297042
0.002014014352
0.001873853522
0.001759094444
0.001664085831
0.001584751392
0.001517966191
0.001461389406
0.0014132371
0.001372045974
0.001336738875
0.001306283101
0.001280013049
0.001257187063
0.001237471036
0.001220257396
0.001205473993
0.001192564871
0.001181954875
0.001173833975
0.001170532514
0.00117356807
0.001191208272
0.001236098975
0.001336105234
0.001546161157
0.002000599457
0.003062668252
0.005905407572
0.01125675385
81306.99503
68108.98577
46406.0837
24282.36891
9246.704293
3015.700937
1076.048084
409.6586958
129.1184988
27.86178186
4.41544764
0.8589264012
0.2803111649
0.1317907821
0.08172646972
0.05793676864
0.04326773954
0.03284214196
0.0250035655
0.01906218482
0.01459093136
0.01125669686
0.008786253197
0.006963456589
0.005619374902
0.004625775179
0.003887336986
0.00333393276
0.002914256932
0.002591556124
0.002339328285
0.00213905501
0.001977765432
0.001846098265
0.001737437042
0.001646945235
0.001570967794
0.001506745505
0.001452223284
0.001405618405
0.001365677911
0.001331261016
0.001301597805
0.001275858206
0.001253648022
0.00123427316
0.001217660686
0.001203198858
0.001191463362
0.001182935157
0.001179973253
0.001184602737
0.001205855883
0.001256941352
0.001366871351
0.001591535096
0.002066298785
0.003146263159
0.005924039892
0.01076541287
89271.36001
68852.49474
40494.72538
17119.3869
6392.540205
2577.207801
1142.947697
521.8785465
213.0850216
61.92762275
13.84756958
2.646640082
0.6048673895
0.2088359425
0.1019057074
0.06538183983
0.04745470089
0.03593725336
0.02750240202
0.0210933618
0.01621950405
0.01254419069
0.009796721727
0.007753110577
0.006235863554
0.005108142837
0.004266606616
0.003633938155
0.003153658808
0.002784468441
0.002496427253
0.002268404388
0.002085245103
0.001936161032
0.001813479514
0.001711528696
0.001626133545
0.001554094041
0.001492994574
0.001440767107
0.001396054898
0.001357531197
0.00132439555
0.001295654415
0.001270870415
0.001249261832
0.001230763667
0.001214786601
0.001201977868
0.001193197846
0.00119069754
0.001197135821
0.001222256816
0.001279746164
0.001399643126
0.001638618231
0.00213262535
0.003225931254
0.0059203783
0.01029109567
89503.52756
56725.16957
28221.44412
12572.76407
5605.405097
2664.201759
1354.451546
693.8580367
330.8209124
132.4515185
38.54548353
9.306764015
1.969765049
0.4693332435
0.1645621845
0.08163341103
0.05351533859
0.03951835101
0.03025174838
0.02334740207
0.01805235733
0.01400817253
0.01094333947
0.008641046472
0.006919203667
0.005633435836
0.004672277513
0.003950280793
0.003403108592
0.00298388087
0.002657942602
0.002400930531
0.002195151923
0.002028250613
0.00189129881
0.001777705614
0.001682741451
0.001602697533
0.001534861493
0.001476982223
0.001427501695
0.001384873653
0.001348216819
0.001316392069
0.001288980538
0.001265101417
0.001244727485
0.001227241662
0.00121346463
0.00120464287
0.001202749593
0.001211265087
0.001240440504
0.001304382521
0.001433992371
0.001686391122
0.002197093341
0.003297416622
0.005903976683
0.009828452656
78818.51185
46336.41219
23821.56924
11705.63124
5855.450334
3108.083854
1720.849448
951.6927996
507.1602936
246.66474
98.97043421
29.38567506
7.370402962
1.614468862
0.3816140858
0.1340809337
0.06694902789
0.04446617683
0.03326618974
0.02573335188
0.02004917444
0.01564761104
0.01225551808
0.009666338669
0.007707279212
0.006233620157
0.005128830285
0.004298495831
0.003671883379
0.003194105958
0.002825529423
0.002536834959
0.002307034496
0.002121677186
0.001970124926
0.00184472738
0.001740088272
0.001652045465
0.001577501399
0.001513968986