/*--------------------------------*- C++ -*----------------------------------*\
  =========                 |
  \\      /  F ield         | OpenFOAM: The Open Source CFD Toolbox
   \\    /   O peration     | Website:  https://openfoam.org
    \\  /    A nd           | Version:  10
     \\/     M anipulation  |
\*---------------------------------------------------------------------------*/
FoamFile
{
    format      ascii;
    class       volScalarField;
    location    "0.0250188088";
    object      H;
}
// * * * * * * * * * * * * * * * * * * * * * * * * * * * * * * * * * * * * * //

dimensions      [0 0 0 0 0 0 0];

internalField   nonuniform List<scalar> 
5170
(
0
0
0
0
0
0
0
0
0
0
0
0
0
0
0
0
0
0
0
0
0
0
0
0
0
0
0
0
0
0
0
0
0
0
0
0
0
0
0
0
0
0
0
0
0
0
0
0
0
0
0
0
0
0
0
0
0
0
0
0
0
0
0
0
0
0
0
0
0
0
0
0
0
0
0
0
0
0
0
0
0
0
0
0
0
0
0
0
0
0
0
0
0
0
0
0
0
0
2.38659034e-11
4.215842054e-10
1.050214844e-05
1.049234654e-05
1.049069033e-05
1.04982637e-05
1.050016328e-05
4.932296128e-06
5.489735281e-06
5.479247645e-06
5.42665228e-06
4.73019244e-06
2.820104718e-06
3.294737564e-06
3.28709862e-06
3.115588186e-06
2.503935152e-06
1.812321488e-06
2.196365132e-06
2.201505962e-06
1.994412422e-06
1.57165123e-06
1.272432514e-06
1.576868892e-06
1.579013189e-06
1.391587283e-06
1.053304185e-06
9.997056219e-07
1.215951902e-06
1.234773911e-06
1.06172325e-06
8.13300465e-07
7.82435246e-07
9.959090843e-07
1.008836732e-06
8.858369692e-07
7.402421608e-07
6.925074679e-07
8.118060979e-07
8.30649075e-07
7.82289686e-07
6.793790569e-07
6.670599211e-07
7.343961154e-07
7.429386257e-07
6.951804655e-07
6.109231295e-07
6.205659275e-07
6.74928752e-07
6.751404107e-07
6.32189384e-07
5.812738336e-07
5.92588326e-07
6.315436226e-07
6.261482844e-07
5.833793856e-07
5.580288847e-07
5.647157661e-07
5.926733657e-07
5.856493288e-07
5.627041211e-07
5.39756767e-07
5.451150671e-07
5.692756507e-07
5.665928506e-07
5.491268726e-07
5.248467694e-07
5.286939488e-07
5.523879333e-07
5.526678606e-07
5.374538917e-07
5.118556915e-07
5.140565127e-07
5.382590522e-07
5.398116739e-07
5.241222714e-07
5.050330634e-07
5.044854704e-07
5.238073548e-07
5.252289657e-07
5.089969399e-07
4.925535531e-07
4.955373532e-07
5.093556906e-07
5.10528311e-07
4.988000796e-07
4.785493997e-07
4.861284419e-07
5.010003518e-07
5.011101163e-07
4.868517819e-07
4.664267015e-07
5.148354431e-07
4.993315281e-07
4.915230838e-07
4.733867787e-07
4.548175254e-07
4.993422942e-06
1.160256815e-06
6.336959618e-07
4.794253776e-07
4.432948936e-07
0
0
7.1512763e-10
1.156790855e-08
2.946709666e-07
0
3.500459235e-11
1.188889548e-09
8.250573946e-09
1.513112758e-07
0
5.906892915e-11
1.114368075e-09
5.498231727e-09
7.770651606e-08
0
4.996568505e-11
6.244408842e-10
3.919089547e-09
4.824688928e-08
0
0
0
2.964190959e-09
3.254024269e-08
0
0
0
2.595549094e-09
2.549566741e-08
0
0
1.079747667e-10
2.751679023e-09
2.522012338e-08
0
0
2.288813107e-10
3.085862686e-09
2.529887575e-08
0
0
3.161360072e-10
3.374569853e-09
2.441101064e-08
0
1.45655363e-12
3.638302601e-10
3.162217004e-09
1.977672193e-08
0
4.839191513e-11
4.561137531e-10
3.479821606e-09
2.060120879e-08
3.932870039e-12
6.736008283e-11
5.943901097e-10
4.025481413e-09
2.181996644e-08
0
9.458142898e-11
6.944142948e-10
4.047929417e-09
1.919054825e-08
2.078425021e-11
1.316150851e-10
8.254353049e-10
4.352488516e-09
1.921441588e-08
4.652043568e-11
2.064117305e-10
1.032769805e-09
4.89828102e-09
1.978629577e-08
6.97931238e-11
2.789924197e-10
1.268916273e-09
5.35797618e-09
1.957455294e-08
1.656058402e-10
4.605491561e-10
1.788943422e-09
6.668715501e-09
2.260540893e-08
3.772437109e-10
8.389232079e-10
2.582378777e-09
8.113868373e-09
2.522315122e-08
7.893048372e-10
1.586327811e-09
4.340548023e-09
1.229191832e-08
3.87657165e-08
1.786431233e-09
3.03538378e-09
7.200034012e-09
1.933534688e-08
5.667206461e-08
3.224240284e-09
4.569517374e-09
8.470587997e-09
1.789913962e-08
4.100134403e-08
4.777144549e-09
5.771133312e-09
8.307137378e-09
1.331842749e-08
2.293514398e-08
4.812275854e-09
5.316070906e-09
6.493261608e-09
8.4936873e-09
1.163569312e-08
3.010783683e-09
3.167042492e-09
3.486128124e-09
3.966088745e-09
4.596535084e-09
1.108517031e-09
1.128460624e-09
1.162849327e-09
1.20033229e-09
1.236345476e-09
2.505401821e-10
2.49088855e-10
2.483467093e-10
2.437339074e-10
2.313314423e-10
4.670359643e-11
4.630290302e-11
4.495474139e-11
4.245721067e-11
3.880132048e-11
7.959770679e-12
7.841678315e-12
7.517582663e-12
6.931822601e-12
6.24077284e-12
1.370063138e-12
1.350346513e-12
1.306434312e-12
1.181988571e-12
9.981025573e-13
2.574561063e-13
2.556965697e-13
2.493870056e-13
2.271733114e-13
1.935274674e-13
3.441191441e-14
3.625617005e-14
4.028481747e-14
4.434591937e-14
4.319884135e-14
1.055753466e-14
1.073187791e-14
1.10910364e-14
1.144290891e-14
1.117205762e-14
3.819964479e-15
3.78084914e-15
3.708787271e-15
3.624130569e-15
3.499630698e-15
1.713359752e-15
1.703381269e-15
1.6832215e-15
1.65916343e-15
1.634736286e-15
1.099720882e-15
1.098120843e-15
1.093274344e-15
1.092089333e-15
1.09509889e-15
9.029210487e-16
9.095482879e-16
9.243523858e-16
9.4746128e-16
9.790947867e-16
8.417481943e-16
8.505274612e-16
8.697146266e-16
8.98481363e-16
9.361671389e-16
6.952158106e-16
7.044976245e-16
7.248749024e-16
7.558847353e-16
7.970886914e-16
5.140266892e-16
5.222466556e-16
5.401552821e-16
5.671559774e-16
6.01528286e-16
3.120447388e-16
3.174330377e-16
3.283045009e-16
3.432749101e-16
3.63432138e-16
1.183292636e-16
1.182653753e-16
1.178529167e-16
1.16562108e-16
1.129901373e-16
0
0
0
2.888361461e-19
1.352547473e-18
3.09357797e-17
5.045032152e-17
5.67417509e-17
5.603522366e-17
5.38766959e-17
3.953581487e-17
3.902501626e-17
3.70585496e-17
3.360704412e-17
2.84513524e-17
3.281770672e-18
2.469181688e-18
5.838013489e-19
0
0
1.565973047e-17
1.516094783e-17
1.370686152e-17
1.020689991e-17
8.626658467e-19
0
0
0
0
0
5.335611867e-17
5.230968844e-17
5.005459668e-17
4.657350811e-17
4.20344264e-17
3.118843058e-17
3.065345961e-17
2.942080077e-17
2.745292388e-17
2.476890832e-17
9.118045878e-18
8.928349412e-18
8.346636863e-18
6.333388213e-18
5.575810439e-18
0
0
0
3.232369906e-19
1.072083949e-18
0
0
0
0
1.712084914e-18
0
0
0
0
0
0
7.969059322e-19
6.479028064e-18
7.317754982e-18
7.198810982e-18
2.835950383e-17
2.937506063e-17
3.143612179e-17
3.383359588e-17
3.538858728e-17
6.768382144e-17
6.862828851e-17
6.910697452e-17
6.374615032e-17
5.740093298e-17
0
0
0
0
0
0
0
0
0
0
0
0
0
0
0
1.491283199e-16
1.503799721e-16
1.529828907e-16
1.566041142e-16
1.606906397e-16
4.394538196e-16
4.391142419e-16
4.378620875e-16
4.344844917e-16
4.28256458e-16
7.888867613e-16
7.829499658e-16
7.698578337e-16
7.496197483e-16
7.219280614e-16
6.649283313e-16
6.694901999e-16
6.776325003e-16
6.816892984e-16
6.655761731e-16
8.475143486e-16
8.45656679e-16
8.415838971e-16
8.348104624e-16
8.231257195e-16
9.20682665e-16
9.144633484e-16
9.011108495e-16
8.811169942e-16
8.535329052e-16
1.244468161e-15
1.237000254e-15
1.220411806e-15
1.192418421e-15
1.135835225e-15
2.436452929e-15
2.417016463e-15
2.37698044e-15
2.319749581e-15
2.247289697e-15
3.977435135e-15
3.960694446e-15
3.925819264e-15
3.874100237e-15
3.804611377e-15
5.92364977e-15
5.904816828e-15
5.865671632e-15
5.807572903e-15
5.728771934e-15
7.163978292e-15
7.149488565e-15
7.120044294e-15
7.076697539e-15
7.01140377e-15
2.531569762e-06
9.021127825e-07
4.217712334e-07
2.619288974e-07
1.64593874e-07
1.246625205e-07
1.212187625e-07
1.11643575e-07
9.720709526e-08
7.048029529e-08
7.263150955e-08
7.166297329e-08
5.588516882e-08
5.440637377e-08
5.226083428e-08
4.911296607e-08
5.275461226e-08
6.579608328e-08
9.673942308e-08
1.365053113e-07
7.965664027e-08
3.544050354e-08
1.490411064e-08
5.148885854e-09
1.267759242e-09
2.243617103e-10
3.650455817e-11
5.805866273e-12
8.502960488e-13
1.731661365e-13
3.906922541e-14
1.066012896e-14
3.409567075e-15
1.626171372e-15
1.10080428e-15
1.004745903e-15
9.662773144e-16
8.308581034e-16
6.291236613e-16
3.740160475e-16
1.075357155e-16
3.377416467e-18
5.062267386e-17
2.378456938e-17
0
0
0
3.845780447e-17
2.267217401e-17
4.504943066e-18
0
5.633324071e-18
1.368455257e-18
6.041777444e-18
3.473100125e-17
4.901715767e-17
0
0
9.08633067e-18
1.632336253e-16
4.214437229e-16
6.982251874e-16
6.513994927e-16
8.087112052e-16
8.275546261e-16
1.102559469e-15
2.184316308e-15
3.737423555e-15
5.651535911e-15
6.963972361e-15
1.058407306e-05
0.0001389734643
1.471988333e-05
1.360619183e-06
2.28316261e-07
3.057375767e-06
2.248835622e-05
8.906690176e-05
9.641848473e-06
3.836271046e-07
1.567467576e-06
1.524317801e-05
0.0001732208724
3.603235221e-05
1.47044355e-06
1.015550971e-06
9.944085961e-06
9.460003231e-05
7.701809655e-05
7.321837064e-06
6.044833438e-07
5.223948229e-06
4.074531336e-05
0.0001311344439
2.330306508e-05
4.558334029e-07
3.961230372e-06
3.115296258e-05
0.0001844408011
5.114414119e-05
4.382925668e-07
3.844287506e-06
2.974155214e-05
0.0002010867443
8.924577449e-05
3.799188045e-07
2.988780703e-06
2.058900387e-05
0.0001271289143
0.0001250919614
3.046034645e-07
1.983221924e-06
1.213987429e-05
6.641324095e-05
0.0001596243445
2.130610301e-07
1.513825335e-06
9.185325861e-06
5.160679519e-05
0.0001876457546
2.194068085e-07
1.367529106e-06
8.191687448e-06
4.577925388e-05
0.000192390592
2.05297975e-07
1.200213037e-06
6.798018555e-06
3.564096743e-05
0.0001499292499
1.472749423e-07
9.808590196e-07
4.735590494e-06
2.237457438e-05
8.573069291e-05
1.432894773e-07
7.99498208e-07
3.643192129e-06
1.674380221e-05
6.524502219e-05
1.27863254e-07
6.511174352e-07
3.188625635e-06
1.453190375e-05
5.786477765e-05
1.193268696e-07
5.840968966e-07
2.970176033e-06
1.330060316e-05
5.24551998e-05
1.242136041e-07
5.782409614e-07
2.871573057e-06
1.222316909e-05
4.711361185e-05
1.554617237e-07
7.277620831e-07
3.262078948e-06
1.355590298e-05
5.203398546e-05
2.264991408e-07
1.042527373e-06
4.553166275e-06
1.879179234e-05
7.011248994e-05
3.394626382e-07
1.735797329e-06
8.767033713e-06
4.423314863e-05
0.0002177272577
1.669912796e-07
6.03137068e-07
2.094584717e-06
6.865841795e-06
1.881291786e-05
6.081265213e-08
1.532682903e-07
3.752711153e-07
8.624616437e-07
1.640096637e-06
2.104331545e-08
3.703888032e-08
6.372014371e-08
1.038296552e-07
1.45900909e-07
6.222249863e-09
7.989568839e-09
9.866906341e-09
1.183755943e-08
1.30662759e-08
1.39016371e-09
1.419179478e-09
1.376051676e-09
1.303133931e-09
1.183433647e-09
2.248245702e-10
2.009131022e-10
1.638186434e-10
1.260391793e-10
9.340096056e-11
3.51478243e-11
2.939026175e-11
2.213946675e-11
1.539197615e-11
1.021234267e-11
5.497779581e-12
4.352491956e-12
3.327574718e-12
2.031973881e-12
8.87336726e-13
6.912703315e-13
6.788186473e-13
5.276333642e-13
3.295605381e-13
5.67414003e-15
1.405970983e-13
1.01785674e-13
7.318199642e-14
6.53411443e-14
2.560608218e-14
3.445244398e-14
2.684494459e-14
1.782896905e-14
1.637357921e-14
1.128515092e-14
1.016096321e-14
8.2658655e-15
5.785908181e-15
4.878746614e-15
4.060405722e-15
3.340940263e-15
2.982367767e-15
2.64549067e-15
2.258232618e-15
1.931016405e-15
1.634814419e-15
1.527676544e-15
1.403586666e-15
1.308675271e-15
1.348126601e-15
1.112240269e-15
1.131068237e-15
1.159145522e-15
1.207985531e-15
1.291050177e-15
1.040168397e-15
1.110774209e-15
1.182297358e-15
1.295815398e-15
1.463223533e-15
1.010742643e-15
1.095327113e-15
1.19333271e-15
1.31900309e-15
1.46176715e-15
8.8303136e-16
9.800146529e-16
1.076031723e-15
1.157749987e-15
1.250209356e-15
6.719921332e-16
7.411010521e-16
7.960021611e-16
8.39483047e-16
8.987703992e-16
3.896533084e-16
4.076289423e-16
4.110096707e-16
4.250808579e-16
4.620050283e-16
1.038501511e-16
1.09025162e-16
1.25891278e-16
1.924781932e-16
2.098965838e-16
1.069661358e-17
5.27087127e-17
7.022436515e-17
6.737061087e-17
5.206392066e-17
4.653039157e-17
3.622484581e-17
2.695601383e-17
1.214167541e-17
1.266165623e-18
1.573291512e-17
5.738635686e-18
0
6.44493572e-19
0
5.10074187e-19
6.050594741e-18
0
0
0
0
0
0
0
8.642971602e-18
0
0
1.383001192e-17
1.889289621e-17
1.527331097e-17
3.322141115e-17
2.746656139e-17
2.259657704e-17
1.533051812e-17
9.009301107e-18
1.99854551e-17
1.504767275e-17
1.158272304e-17
1.082699465e-17
3.175055113e-19
2.324893467e-18
0
0
0
8.353032913e-19
0
0
0
5.922297858e-18
1.874513582e-17
7.307377586e-18
1.899858864e-17
3.72220672e-17
6.039142707e-17
8.655065874e-17
0
2.285074723e-18
7.525408933e-18
2.170578932e-17
4.324481569e-17
3.128592044e-18
5.777911434e-18
6.407887333e-18
7.067486012e-18
1.017311418e-17
3.301230668e-17
2.762428315e-17
1.858291479e-17
6.414355807e-18
0
2.939051361e-17
9.778945845e-18
0
0
0
0
0
0
0
0
0
0
0
0
1.008533247e-17
1.516801039e-17
2.668845242e-17
4.126104104e-17
6.511694644e-17
7.165410316e-17
1.683056046e-16
1.73766967e-16
1.749780228e-16
1.682498096e-16
1.491939317e-16
4.103428862e-16
3.872038299e-16
3.539631487e-16
3.126950365e-16
2.707166063e-16
6.609112296e-16
6.00068947e-16
5.48593772e-16
5.107328492e-16
4.763583803e-16
6.370106608e-16
7.140536772e-16
6.610456064e-16
5.766743279e-16
5.006061746e-16
7.845900982e-16
7.368299611e-16
6.730722857e-16
5.988095501e-16
5.16657112e-16
7.870715881e-16
7.120285901e-16
6.280547263e-16
5.322336266e-16
4.011956749e-16
1.038552581e-15
9.246776985e-16
7.819717987e-16
5.876699006e-16
4.077187958e-16
2.054021528e-15
1.840850544e-15
1.592090658e-15
1.323574332e-15
1.035279355e-15
3.593177083e-15
3.356861936e-15
3.133594132e-15
2.905864496e-15
2.663938176e-15
5.487357648e-15
5.23310786e-15
4.992329061e-15
4.793895151e-15
4.639093618e-15
6.855246692e-15
6.765157391e-15
6.692032575e-15
6.664284852e-15
6.684348425e-15
6.185250866e-10
1.409214682e-11
7.578039454e-17
2.653777877e-17
2.803774918e-17
2.901388289e-17
2.932677253e-17
2.934042062e-17
2.924363764e-17
2.91088187e-17
2.895811003e-17
2.880369031e-17
2.865144044e-17
2.850440965e-17
2.840930952e-17
3.258212726e-17
3.227157084e-17
3.207880268e-17
0
0
0
0
0
0
0
0
0
0
0
0
0
0
0
0
0
0
0
0
0
0
0
0
0
0
0
0
0
0
0
0
0
0
0
0
0
0
0
0
0
0
1.532051058e-09
4.682212833e-11
1.794514477e-16
2.014952882e-17
2.1434343e-17
2.275062923e-17
2.363413357e-17
2.405287846e-17
2.417428815e-17
2.414616602e-17
2.404513416e-17
2.390563123e-17
2.374972086e-17
2.359286446e-17
2.348683106e-17
2.780705604e-17
2.780324512e-17
2.309157951e-17
2.727199251e-17
3.101495053e-17
0
0
0
0
0
0
0
0
0
0
0
0
0
0
0
0
0
0
0
0
0
0
0
0
0
0
0
0
0
0
0
0
0
0
0
0
0
0
0
0
8.380051438e-09
0
2.568878381e-17
1.9727009e-17
2.057242489e-17
2.184488939e-17
2.309435606e-17
2.394550837e-17
2.43502929e-17
2.446132783e-17
2.439712225e-17
2.423700691e-17
2.403464402e-17
2.381975114e-17
2.366032721e-17
2.803058693e-17
2.820015585e-17
2.311950973e-17
2.294097877e-17
2.285744903e-17
3.073863897e-17
0
0
0
0
0
0
0
0
0
0
0
0
0
0
0
0
0
0
0
0
0
0
0
0
0
0
0
0
0
0
0
0
0
0
0
0
0
0
0
1.209648638e-07
4.469271296e-10
1.877465962e-11
5.699838887e-17
2.023620713e-17
2.149479598e-17
2.298823208e-17
2.414731255e-17
2.482397595e-17
2.509385824e-17
2.507483824e-17
2.488409074e-17
2.460237775e-17
2.428397906e-17
2.40241174e-17
2.857493722e-17
2.861807749e-17
2.324921431e-17
2.299381697e-17
2.281790353e-17
2.274678358e-17
3.048587242e-17
0
0
0
0
0
0
0
0
0
0
0
0
0
0
0
0
0
0
0
0
0
0
0
0
0
0
0
0
0
0
0
0
0
0
0
0
0
0
8.099663462e-07
6.831949885e-09
5.042536338e-11
5.202509187e-18
2.004790358e-17
2.138983307e-17
2.325221718e-17
2.483269675e-17
2.579195209e-17
2.621037531e-17
2.62492629e-17
2.605540372e-17
2.569959079e-17
2.522961695e-17
2.479214169e-17
2.975666925e-17
2.937663989e-17
2.351610678e-17
2.316740639e-17
2.29352456e-17
2.27398946e-17
2.265430771e-17
3.030879606e-17
0
0
0
0
0
0
0
0
0
0
0
0
0
0
0
0
0
0
0
0
0
0
0
0
0
0
0
0
0
0
0
0
0
0
0
0
0
3.681617116e-06
7.772493002e-08
4.961617735e-10
6.688467463e-11
3.135283051e-17
2.10605015e-17
2.269442267e-17
2.459250182e-17
2.590320261e-17
2.656583306e-17
2.675826593e-17
2.663709014e-17
2.630384944e-17
2.583352871e-17
2.540336607e-17
3.100967988e-17
3.02111193e-17
2.385857564e-17
2.338780698e-17
2.306607554e-17
2.280747689e-17
2.259500452e-17
2.249690698e-17
3.003785724e-17
0
0
0
0
0
0
0
0
0
0
0
0
0
0
0
0
0
0
0
0
0
0
0
0
0
0
0
0
0
0
0
0
0
0
0
0
1.078197122e-05
4.342516215e-07
6.623552809e-09
3.525764415e-11
4.668063791e-12
3.535512468e-17
2.202448297e-17
2.370847815e-17
2.541202137e-17
2.642982682e-17
2.688980724e-17
2.69628756e-17
2.677729985e-17
2.642050312e-17
2.606672453e-17
3.238040446e-17
3.128125835e-17
2.433406629e-17
2.374581805e-17
2.33212492e-17
2.297353479e-17
2.269310143e-17
2.246480431e-17
2.235406703e-17
2.977059509e-17
0
0
0
0
0
0
0
0
0
0
0
0
0
0
0
0
0
0
0
0
0
0
0
0
0
0
0
0
0
0
0
0
0
0
0
2.336411781e-05
1.575582679e-06
4.670725777e-08
5.521910031e-10
0
0
2.226723101e-17
2.266981951e-17
2.468892089e-17
2.615353973e-17
2.693567607e-17
2.721892465e-17
2.716703955e-17
2.690005741e-17
2.663460256e-17
3.366735599e-17
3.244755111e-17
2.493103837e-17
2.42461361e-17
2.371237167e-17
2.325758978e-17
2.288949077e-17
2.259431378e-17
2.235378102e-17
2.223180031e-17
2.952875161e-17
0
0
0
0
0
0
0
0
0
0
0
0
0
0
0
0
0
0
0
0
0
0
0
0
0
0
0
0
0
0
0
0
0
0
4.358738629e-05
4.49557601e-06
2.195824315e-07
5.610270752e-09
6.362125923e-11
1.204590499e-11
8.326448232e-17
2.208278584e-17
2.374579707e-17
2.566602078e-17
2.685647412e-17
2.740380391e-17
2.751124408e-17
2.733502622e-17
2.714278071e-17
3.475946356e-17
3.350721814e-17
2.549453755e-17
2.4774191e-17
2.419205692e-17
2.366050812e-17
2.320046452e-17
2.281761006e-17
2.250441308e-17
2.224954169e-17
2.211695423e-17
2.930459723e-17
0
0
0
0
0
0
0
0
0
0
0
0
0
0
0
0
0
0
0
0
0
0
0
0
0
0
0
0
0
0
0
0
0
7.105385898e-05
1.040425377e-05
7.419836932e-07
2.971917822e-08
6.682969512e-10
6.909577585e-12
0
2.208066914e-17
2.257948476e-17
2.489077154e-17
2.656700383e-17
2.745996443e-17
2.778060191e-17
2.772557232e-17
2.761539871e-17
3.573162387e-17
3.451789477e-17
2.602084206e-17
2.527602396e-17
2.466972845e-17
2.409326717e-17
2.357074372e-17
2.311947356e-17
2.274355598e-17
2.243546913e-17
2.220217012e-17
2.550790166e-17
0
0
0
0
0
0
0
0
0
0
0
0
0
0
0
0
0
0
0
0
0
0
0
0
0
0
0
0
0
0
0
0
0
0.0001021139657
2.123228464e-05
2.211368972e-06
1.268312654e-07
4.249257906e-09
7.347641101e-11
1.45484054e-11
0
2.364911865e-17
2.4000674e-17
2.613408493e-17
2.742954288e-17
2.800692317e-17
2.809786065e-17
2.808785122e-17
3.668155716e-17
3.555756884e-17
2.655294878e-17
2.57795012e-17
2.515290167e-17
2.454243565e-17
2.39710774e-17
2.346047902e-17
2.302299002e-17
2.265948212e-17
2.236092677e-17
2.216737279e-17
2.934605828e-17
0
0
0
0
0
0
0
0
0
0
0
0
0
0
0
0
0
0
0
0
0
0
0
0
0
0
0
0
0
0
0
0
0.0001303251129
3.591762857e-05
5.32254085e-06
4.176966451e-07
1.898659301e-08
4.735611022e-10
5.330416184e-12
5.998026393e-13
2.019834133e-18
2.497595266e-17
2.578779739e-17
2.747307865e-17
2.833804602e-17
2.860106753e-17
2.869241861e-17
3.77920151e-17
3.675605839e-17
2.712752397e-17
2.630420495e-17
2.56571077e-17
2.501554904e-17
2.440174092e-17
2.383870695e-17
2.334231277e-17
2.292063973e-17
2.257077602e-17
2.228311085e-17
2.212038281e-17
2.919215381e-17
0
0
0
0
0
0
0
0
0
0
0
0
0
0
0
0
0
0
0
0
0
0
0
0
0
0
0
0
0
0
0
0.0001548838339
5.524447248e-05
1.080978402e-05
1.16495851e-06
6.834714749e-08
2.209215033e-09
3.575243562e-11
8.817993242e-12
0
3.697089976e-17
2.521052003e-17
2.724738808e-17
2.846673995e-17
2.89713441e-17
2.922725936e-17
3.888702296e-17
3.796893474e-17
2.775077026e-17
2.686381574e-17
2.617912151e-17
2.551199166e-17
2.486332474e-17
2.425488671e-17
2.370351624e-17
2.322323069e-17
2.281826682e-17
2.2482925e-17
2.222475657e-17
2.478754307e-17
2.660718113e-16
0
0
0
0
0
0
0
0
0
0
0
0
0
0
0
0
0
0
0
0
0
0
0
0
0
0
0
0
0
0
0.0001767906968
7.923150786e-05
1.915583641e-05
2.81726691e-06
2.076658258e-07
8.458689909e-09
1.890605585e-10
3.39714945e-11
3.691433224e-13
1.607751345e-16
2.463000068e-17
2.674221402e-17
2.836236994e-17
2.916514791e-17
2.962717899e-17
3.979357682e-17
3.900089797e-17
2.831366564e-17
2.739365057e-17
2.668958441e-17
2.600586881e-17
2.533530517e-17
2.469165735e-17
2.409440336e-17
2.356105437e-17
2.310155649e-17
2.271573296e-17
2.239576404e-17
2.218251935e-17
2.851275708e-17
0
0
0
0
0
0
0
0
0
0
0
0
0
0
0
0
0
0
0
0
0
0
0
0
0
0
0
0
0
0
0.0001880384334
0.0001067318688
3.214559185e-05
6.006238261e-06
5.181710885e-07
2.488268204e-08
7.10465878e-10
1.281767189e-11
3.853156373e-12
5.917535742e-17
2.470310467e-17
2.587650571e-17
2.790536506e-17
2.907211224e-17
2.97867099e-17
4.035282378e-17
3.966680046e-17
2.872731319e-17
2.781221464e-17
2.713034834e-17
2.645981752e-17
2.578320515e-17
2.511970442e-17
2.449098333e-17
2.391645316e-17
2.340991261e-17
2.297636429e-17
2.261207348e-17
2.230831654e-17
2.212841102e-17
2.934580531e-17
0
0
0
0
0
0
0
0
0
0
0
0
0
0
0
0
0
0
0
0
0
0
0
0
0
0
0
0
0
0.0001809206551
0.0001356388891
4.827700293e-05
1.050437992e-05
9.658012483e-07
5.042900714e-08
1.708769823e-09
1.702740705e-11
4.831597122e-12
7.458624958e-16
2.395001549e-17
2.460366681e-17
2.686027495e-17
2.846777362e-17
2.952397382e-17
4.03558684e-17
3.968048026e-17
2.890065827e-17
2.809534401e-17
2.748947913e-17
2.684063252e-17
2.617156241e-17
2.550535558e-17
2.486318199e-17
2.426432617e-17
2.372416234e-17
2.325149526e-17
2.284723977e-17
2.250573163e-17
2.224092926e-17
2.580905518e-17
0
0
0
0
0
0
0
0
0
0
0
0
0
0
0
0
0
0
0
0
0
0
0
0
0
0
0
0
0
0.000163283131
0.0001516682642
5.952037389e-05
1.32504088e-05
1.147678677e-06
6.031349897e-08
2.283810957e-09
9.290287652e-11
6.896983817e-12
6.88583273e-15
2.878886286e-17
2.299847815e-17
2.516538913e-17
2.719249424e-17
2.870546188e-17
3.972654172e-17
3.90182103e-17
2.897657635e-17
2.830369329e-17
2.774141104e-17
2.712232656e-17
2.647529775e-17
2.582374936e-17
2.518682463e-17
2.458206058e-17
2.40246927e-17
2.352567228e-17
2.308966384e-17
2.271494173e-17
2.23956369e-17
2.218167309e-17
2.960182354e-17
0
0
0
0
0
0
0
0
0
0
0
0
0
0
0
0
0
0
0
0
0
0
0
0
0
0
0
0
0.000183623735
0.0001498067646
5.50413232e-05
8.374098752e-06
6.213887744e-07
3.193592295e-08
1.316221099e-09
4.22758006e-11
2.627545275e-12
0
0
6.34044731e-18
2.292217344e-17
2.533660621e-17
2.763054074e-17
3.948052897e-17
3.83953293e-17
2.900474977e-17
2.84253787e-17
2.790753595e-17
2.732082135e-17
2.670161205e-17
2.607381467e-17
2.545438708e-17
2.48578375e-17
2.429764648e-17
2.378581286e-17
2.332767104e-17
2.292619844e-17
2.257873394e-17
2.229993976e-17
2.417436047e-17
1.705748932e-16
0
0
0
0
0
0
0
0
0
0
0
0
0
0
0
0
0
0
0
0
0
0
0
0
0
0
0
0.0002064720234
0.0001164297167
3.377938191e-05
3.143201027e-06
2.01941671e-07
1.038369904e-08
4.498106585e-10
4.466742369e-11
3.284916564e-12
0
0
0
2.458265605e-17
2.384876626e-17
2.634491456e-17
3.894014853e-17
3.724204066e-17
2.892291596e-17
2.84793705e-17
2.801477385e-17
2.746087608e-17
2.686879591e-17
2.626626814e-17
2.567010785e-17
2.508989836e-17
2.455629548e-17
2.464359209e-17
2.414468955e-17
2.369315574e-17
2.329523611e-17
2.294868893e-17
2.270528293e-17
2.838417302e-17
0
0
0
0
0
0
0
0
0
0
0
0
0
0
0
0
0
0
0
0
0
0
0
0
0
0
0
0.0002072234112
9.096744352e-05
9.924199842e-06
7.827659448e-07
4.852178484e-08
2.533538382e-09
1.149104433e-10
6.245518854e-12
1.404682463e-12
0
0
0
2.497178208e-17
2.309373317e-17
2.472587172e-17
3.74234574e-17
3.513263573e-17
2.865735852e-17
2.846817452e-17
2.809443274e-17
2.758119263e-17
2.701317838e-17
2.645863661e-17
2.656211138e-17
2.609663336e-17
3.244018085e-17
3.330749191e-17
2.778681344e-17
2.726066379e-17
2.683871293e-17
2.64671349e-17
2.614191475e-17
2.58823173e-17
2.943998833e-17
0
0
0
0
0
0
0
0
0
0
0
0
0
0
0
0
0
0
0
0
0
0
0
0
0
0
1.760162691e-05
7.076533018e-06
1.071334471e-06
1.061600926e-07
8.088059986e-09
5.137662121e-10
3.62231871e-11
0
9.01348745e-14
0
0
0
5.70236001e-17
0
2.598668084e-17
3.465748138e-17
3.161415523e-17
2.793740899e-17
2.826335292e-17
2.810611041e-17
2.76865234e-17
2.73675999e-17
3.591518412e-17
3.65559618e-17
2.960970926e-17
2.887165089e-17
2.453344381e-17
2.396091822e-17
2.351566454e-17
2.311274486e-17
2.275248275e-17
2.243373953e-17
2.218030234e-17
2.600372597e-17
0
0
0
0
0
0
0
0
0
0
0
0
0
0
0
0
0
0
0
0
0
0
0
0
0
0
1.480698714e-06
5.643448724e-07
1.030920928e-07
1.262077541e-08
1.183607068e-09
9.004047866e-11
0
0
7.741882214e-15
0
0
0
0
0
2.629591048e-17
3.218336383e-17
2.801256831e-17
2.699429768e-17
2.824648358e-17
2.863598317e-17
2.84591416e-17
2.825126342e-17
3.726092464e-17
3.280664083e-17
2.57588632e-17
2.512467851e-17
2.457354006e-17
2.408554667e-17
2.363225881e-17
2.321690752e-17
2.284206994e-17
2.250790234e-17
2.221289504e-17
2.201555949e-17
2.940219727e-17
0
0
0
0
0
0
0
0
0
0
0
0
0
0
0
0
0
0
0
0
0
0
0
0
0
1.231255918e-07
4.685660897e-08
9.861510852e-09
1.427717126e-09
1.582142472e-10
1.429497742e-11
1.664114121e-12
1.118404721e-13
8.299528277e-15
0
0
0
0
0
0
3.422873847e-17
2.886462953e-17
2.861408591e-17
3.029640135e-17
3.134448818e-17
3.157590096e-17
3.156526401e-17
4.090838202e-17
3.30276298e-17
2.591022725e-17
2.52705844e-17
2.4744176e-17
2.4245441e-17
2.377852677e-17
2.334791199e-17
2.295680816e-17
2.260649978e-17
2.229594817e-17
2.202273009e-17
2.186223506e-17
2.905239395e-17
0
0
0
0
0
0
0
0
0
0
0
0
0
0
0
0
0
0
0
0
0
0
0
0
1.024583198e-08
3.990559561e-09
9.334473804e-10
1.53808921e-10
1.959932335e-11
2.031588091e-12
9.162153374e-14
4.065869781e-15
2.448486028e-15
1.30171e-15
1.752570367e-14
0
0
0
0
0
2.463333532e-17
2.326893074e-17
2.461726604e-17
2.614588106e-17
2.707021703e-17
2.751040931e-17
3.750327509e-17
3.326087894e-17
2.609629068e-17
2.545987878e-17
2.492653168e-17
2.441403837e-17
2.392995495e-17
2.348055436e-17
2.307024252e-17
2.270156812e-17
2.237437511e-17
2.20862856e-17
2.185932905e-17
2.562318376e-17
0
0
0
0
0
0
0
0
0
0
0
0
0
0
0
0
0
0
0
0
0
0
0
0
8.496634339e-10
3.347874686e-10
6.826318643e-11
1.243631815e-11
1.815623614e-12
3.256166114e-13
5.265044756e-14
8.313582625e-15
1.410397724e-15
9.886149339e-16
1.095332385e-15
0
0
0
0
8.655865575e-17
2.538519015e-17
2.271932497e-17
2.303983051e-17
2.441946387e-17
2.588692777e-17
2.698504336e-17
3.749265316e-17
3.33489058e-17
2.62468276e-17
2.564072471e-17
2.51134798e-17
2.459251204e-17
2.409193488e-17
2.362204392e-17
2.318977455e-17
2.279956108e-17
2.245268515e-17
2.214775e-17
2.188137137e-17
2.170576225e-17
2.879623817e-17
0
0
0
0
0
0
0
0
0
0
0
0
0
0
0
0
0
0
0
0
0
0
0
5.958178227e-11
2.346053907e-11
6.488759639e-12
1.786183441e-12
2.852650254e-13
0
8.419899289e-16
0
4.294969164e-16
7.952286794e-16
6.908687518e-16
0
0
0
0
0
9.549009282e-17
0
2.477836816e-17
2.284971238e-17
2.425249949e-17
2.588590749e-17
3.688537082e-17
3.30714863e-17
2.630159547e-17
2.57768654e-17
2.528268964e-17
2.476860229e-17
2.425959303e-17
2.377246242e-17
2.33183319e-17
2.290478436e-17
2.253561506e-17
2.221118311e-17
2.192843013e-17
2.168309339e-17
2.154111124e-17
2.841867961e-17
0
0
0
0
0
0
0
0
0
0
0
0
0
0
0
0
0
0
0
0
0
0
6.226286525e-12
2.371901768e-12
6.791352933e-13
0
4.98096416e-17
0
0
0
1.507471959e-16
7.638965144e-16
7.836313866e-16
6.624384048e-16
0
0
0
0
0
8.097573157e-17
2.383306364e-17
2.191937502e-17
2.267985101e-17
2.429735664e-17
3.529200918e-17
3.207997634e-17
2.617488823e-17
2.581849106e-17
2.540077039e-17
2.491931366e-17
2.441748356e-17
2.392241891e-17
2.345135327e-17
2.301636021e-17
2.262456946e-17
2.227897675e-17
2.197827239e-17
2.171813537e-17
2.149325189e-17
2.136442804e-17
2.805933032e-17
0
0
0
0
0
0
0
0
0
0
0
0
0
0
0
0
0
0
0
0
0
8.487749515e-13
4.130402945e-13
1.158282928e-13
1.967483456e-14
1.211357329e-14
3.157105416e-15
1.724532048e-15
0
0
0
4.038721688e-16
6.5602609e-16
5.519133239e-16
0
0
0
0
0
6.711551818e-17
2.317283864e-17
2.168971614e-17
2.270534599e-17
3.26815635e-17
3.012882213e-17
2.576326694e-17
2.570548406e-17
2.542885191e-17
2.50165263e-17
2.454481574e-17
2.405677409e-17
2.357857089e-17
2.312811909e-17
2.271670421e-17
2.235076613e-17
2.203148436e-17
2.175590674e-17
2.151835906e-17
2.131285756e-17
2.119628221e-17
2.77182314e-17
0
0
0
0
0
0
0
0
0
0
0
0
0
0
0
0
0
0
0
0
5.94686929e-14
3.177253882e-14
1.94991973e-14
9.526451434e-15
8.588138988e-15
2.790725353e-15
1.477185935e-15
0
0
0
0
2.075081424e-17
5.76027252e-16
4.715982097e-16
0
0
0
0
1.107330511e-16
0
2.487223499e-17
2.163972854e-17
2.964073618e-17
2.744770735e-17
2.498091949e-17
2.536625718e-17
2.532109704e-17
2.5029911e-17
2.461942641e-17
2.415807634e-17
2.368641868e-17
2.323001307e-17
2.280543735e-17
2.242292984e-17
2.20866932e-17
2.179583869e-17
2.154584994e-17
2.133033625e-17
2.116133334e-17
2.437935272e-17
0
0
0
0
0
0
0
0
0
0
0
0
0
0
0
0
0
0
0
0
0
7.411711625e-15
6.120517883e-15
2.694119356e-15
2.044468686e-15
1.200641333e-15
9.737186962e-16
2.181933333e-16
0
0
0
6.079451228e-16
7.167092664e-16
1.256628451e-15
7.338212e-15
0
0
0
0
0
3.037037768e-17
2.156975173e-17
2.716309382e-17
2.484590066e-17
2.385193483e-17
2.474515891e-17
2.504385871e-17
2.493425177e-17
2.462029285e-17
2.420965107e-17
2.376092452e-17
2.331058794e-17
2.288185666e-17
2.248914315e-17
2.213994908e-17
2.183596558e-17
2.157429323e-17
2.134914616e-17
2.115422708e-17
2.102599937e-17
2.733974396e-17
0
0
0
0
0
0
0
0
0
0
0
0
0
0
0
0
0
0
0
5.911176117e-15
4.455954872e-15
2.702733049e-15
1.623335422e-15
1.422514118e-15
1.019070959e-15
9.217701194e-16
8.189760279e-16
6.912671146e-16
2.342667219e-16
7.0588014e-16
1.808538247e-15
5.444633934e-16
2.193654285e-16
0
0
0
0
0
0
0
0
2.824045132e-17
2.2980541e-17
2.257588038e-17
2.380248279e-17
2.454153977e-17
2.470852705e-17
2.453430291e-17
2.419885718e-17
2.379191023e-17
2.336139096e-17
2.293878726e-17
2.254368408e-17
2.218720776e-17
2.187379066e-17
2.160242018e-17
2.136856662e-17
2.11661175e-17
2.098937841e-17
2.088793056e-17
2.700710207e-17
0
0
0
0
0
0
0
0
0
0
0
0
0
0
0
0
0
0
2.79617645e-15
2.104045267e-15
1.394550478e-15
1.328462266e-15
1.212893462e-15
1.128547937e-15
1.288670489e-15
1.110732475e-15
1.235930551e-15
1.86350495e-15
1.415770264e-15
1.097217596e-15
0
0
0
0
0
0
0
0
0
3.924046661e-17
2.598938126e-17
2.224880749e-17
2.141997195e-17
2.259584048e-17
2.370553522e-17
2.428060821e-17
2.43425819e-17
2.412002372e-17
2.377162645e-17
2.337483707e-17
2.296937737e-17
2.258041353e-17
2.222330402e-17
2.190526545e-17
2.162740983e-17
2.138673403e-17
2.117799684e-17
2.099544309e-17
2.084351141e-17
2.132531844e-17
3.073733865e-17
0
0
0
0
0
0
0
0
0
0
0
0
0
0
0
0
0
1.681912143e-15
1.448542312e-15
1.260611214e-15
1.175765246e-15
1.222350349e-15
1.214150453e-15
1.476755146e-15
1.403357238e-15
1.345594514e-15
1.539092391e-15
1.331954471e-15
1.10113494e-15
1.288085068e-15
0
0