/*--------------------------------*- C++ -*----------------------------------*\
  =========                 |
  \\      /  F ield         | OpenFOAM: The Open Source CFD Toolbox
   \\    /   O peration     | Website:  https://openfoam.org
    \\  /    A nd           | Version:  10
     \\/     M anipulation  |
\*---------------------------------------------------------------------------*/
FoamFile
{
    format      ascii;
    class       volScalarField;
    location    "0.0250188088";
    object      H2_0;
}
// * * * * * * * * * * * * * * * * * * * * * * * * * * * * * * * * * * * * * //

dimensions      [0 0 0 0 0 0 0];

internalField   nonuniform List<scalar> 
5170
(
5.738339731e-13
5.728135973e-13
5.661237179e-13
5.191710376e-13
4.028596409e-14
1.151974395e-12
1.148797434e-12
1.134589419e-12
1.062142073e-12
6.544346341e-13
1.727791132e-12
1.722565879e-12
1.70193506e-12
1.615664972e-12
1.275783059e-12
2.295252099e-12
2.288270057e-12
2.26297693e-12
2.171662163e-12
1.901591679e-12
2.853252283e-12
2.844853569e-12
2.816768378e-12
2.727252076e-12
2.526358216e-12
3.40202579e-12
3.392776363e-12
3.363784277e-12
3.282076984e-12
3.149210658e-12
3.942780551e-12
3.933140322e-12
3.905013048e-12
3.836936156e-12
3.770802873e-12
4.477295512e-12
4.467894245e-12
4.442269568e-12
4.392605753e-12
4.392364108e-12
5.007111546e-12
4.99848114e-12
4.977151671e-12
4.95042391e-12
5.015252355e-12
5.533625826e-12
5.526135734e-12
5.510302128e-12
5.511662261e-12
5.640736146e-12
6.057624485e-12
6.051674163e-12
6.042405955e-12
6.076968123e-12
6.269287556e-12
6.579273891e-12
6.575381087e-12
6.574942125e-12
6.646348946e-12
6.90044188e-12
7.098702777e-12
7.097395413e-12
7.108386059e-12
7.219781182e-12
7.533471175e-12
7.615905285e-12
7.617738046e-12
7.642485185e-12
7.796987625e-12
8.167436717e-12
8.13070867e-12
8.136352991e-12
8.177040292e-12
8.377300975e-12
8.801141619e-12
8.642759784e-12
8.652972766e-12
8.712560363e-12
8.96041603e-12
9.432620524e-12
9.151854496e-12
9.167479947e-12
9.248224518e-12
9.544908098e-12
1.006232128e-11
9.658223633e-12
9.680947488e-12
9.791400295e-12
1.017487515e-11
1.085510512e-11
1.027886992e-11
1.066446772e-11
1.353259149e-11
3.409733066e-11
1.062953679e-10
4.578798745e-11
2.071183132e-10
1.587820197e-09
1.120287101e-08
5.442756916e-08
7.42238297e-05
7.41679064e-05
7.416167499e-05
7.419816409e-05
7.420416475e-05
4.604067083e-05
4.903439861e-05
4.899644038e-05
4.862552976e-05
4.44282984e-05
3.190023981e-05
3.526664566e-05
3.526493804e-05
3.402184722e-05
2.952381058e-05
2.386089448e-05
2.707361329e-05
2.716902015e-05
2.541786833e-05
2.165916326e-05
1.889950578e-05
2.175073632e-05
2.185547044e-05
2.016549707e-05
1.66975225e-05
1.606681618e-05
1.828446192e-05
1.851247839e-05
1.682388459e-05
1.407836581e-05
1.373094566e-05
1.599555461e-05
1.620806043e-05
1.485505564e-05
1.305445928e-05
1.280369695e-05
1.405546867e-05
1.42564197e-05
1.36177601e-05
1.228599383e-05
1.22778154e-05
1.311756304e-05
1.323962577e-05
1.26325259e-05
1.150917485e-05
1.16589335e-05
1.242677085e-05
1.248293519e-05
1.194076001e-05
1.119079894e-05
1.129477475e-05
1.189084318e-05
1.191158742e-05
1.133966332e-05
1.090644785e-05
1.097435993e-05
1.135198187e-05
1.136046771e-05
1.107521656e-05
1.071427439e-05
1.076787563e-05
1.108059665e-05
1.109579575e-05
1.084836194e-05
1.054163424e-05
1.059514297e-05
1.085386689e-05
1.08723221e-05
1.067844738e-05
1.038032592e-05
1.043321576e-05
1.068460721e-05
1.070121358e-05
1.05041734e-05
1.023110112e-05
1.029238673e-05
1.051694805e-05
1.052731074e-05
1.032600192e-05
1.006047777e-05
1.014496141e-05
1.035240794e-05
1.035626755e-05
1.016434255e-05
9.883327449e-06
1.00042362e-05
1.020815753e-05
1.020095168e-05
9.994318079e-06
9.710288918e-06
1.021326339e-05
1.013533964e-05
1.004864085e-05
9.815986176e-06
9.523379858e-06
4.987293748e-05
1.7204666e-05
1.112685339e-05
9.758015137e-06
9.250751444e-06
1.344328083e-09
1.042855662e-08
1.610441622e-07
2.404650823e-06
3.225633659e-05
8.160444115e-09
5.619473042e-08
7.039052505e-07
7.693628632e-06
6.352165693e-05
3.016496535e-08
1.899334595e-07
2.002704118e-06
1.714901897e-05
9.988376998e-05
8.827485777e-08
5.089941756e-07
4.615153131e-06
3.220435117e-05
0.000142708485
2.283319553e-07
1.224577468e-06
9.632032008e-06
5.446502102e-05
0.0001919032828
5.431973595e-07
2.720310181e-06
1.831289145e-05
8.396680468e-05
0.0002466963836
1.209939499e-06
5.607430399e-06
3.184623407e-05
0.0001199606161
0.0003047314831
2.546777147e-06
1.076923554e-05
5.121341104e-05
0.0001614759102
0.0003636426764
5.134693317e-06
1.952167888e-05
7.714396161e-05
0.000207182517
0.0004218375689
9.961653215e-06
3.342409306e-05
0.0001099043711
0.0002568697586
0.0004808023192
1.870857989e-05
5.444474432e-05
0.0001496932604
0.0003106173016
0.0005416651609
3.46500934e-05
8.420107439e-05
0.0001958966744
0.0003685166389
0.0006048691831
6.234263706e-05
0.0001237725648
0.0002486079917
0.0004304406284
0.0006702196966
0.0001026537128
0.0001730834017
0.0003076000962
0.0004958936822
0.0007367949137
0.0001612202106
0.0002351495081
0.000374681992
0.000566049953
0.0008057789835
0.0002363175709
0.0003099588002
0.0004507919159
0.0006424502489
0.0008789884057
0.0003299454865
0.0004012189942
0.0005397839848
0.0007279973017
0.0009582301083
0.0004447401227
0.0005108899674
0.000642579695
0.0008232587311
0.001044423699
0.0005702681543
0.0006304033983
0.0007528529152
0.0009228065869
0.001130777435
0.0007005665177
0.0007535774554
0.0008613043645
0.001008489976
0.00118326904
0.0008225543328
0.0008625480353
0.0009417824973
0.001044659931
0.001157669763
0.0008948670035
0.0009146946012
0.0009533299789
0.001001119369
0.001048954428
0.0008602651233
0.0008659236241
0.000876027275
0.0008863705938
0.0008927171689
0.0007444829146
0.0007437112182
0.0007408011936
0.0007343048844
0.00072278513
0.0005976902807
0.0005949743321
0.00058831707
0.0005774860942
0.0005623881209
0.0004552332045
0.0004525382935
0.0004462976697
0.0004365792324
0.0004235550442
0.0003423290801
0.000340222447
0.0003353267364
0.0003277857681
0.0003178352211
0.000253978959
0.000252436858
0.0002488710302
0.0002434115387
0.0002362581253
0.0001866110113
0.0001855293021
0.0001830348718
0.0001792249504
0.0001742456407
0.000135896608
0.0001351596494
0.0001334608561
0.0001308667232
0.000127477377
9.800393925e-05
9.75138852e-05
9.638243613e-05
9.465231111e-05
9.238946159e-05
6.988290914e-05
6.956435394e-05
6.882619688e-05
6.769456274e-05
6.621178433e-05
4.921106556e-05
4.900862094e-05
4.853705794e-05
4.78116073e-05
4.685888134e-05
3.425244931e-05
3.412680666e-05
3.383215725e-05
3.337700367e-05
3.27777688e-05
2.368553986e-05
2.360931405e-05
2.342922453e-05
2.314978874e-05
2.278093124e-05
1.645315758e-05
1.640769125e-05
1.629947306e-05
1.613082041e-05
1.590760448e-05
1.167814101e-05
1.16510644e-05
1.158629418e-05
1.148500469e-05
1.135059176e-05
8.63895031e-06
8.622436117e-06
8.582930835e-06
8.521070615e-06
8.438788377e-06
6.768035381e-06
6.75735951e-06
6.732028066e-06
6.692447543e-06
6.639709629e-06
5.644840135e-06
5.637308524e-06
5.619720706e-06
5.592398055e-06
5.555963696e-06
4.976570444e-06
4.970725671e-06
4.957339648e-06
4.936705288e-06
4.909191683e-06
4.571586844e-06
4.566684694e-06
4.555646643e-06
4.538754176e-06
4.516241418e-06
4.311872447e-06
4.307550217e-06
4.29793325e-06
4.283292224e-06
4.263789646e-06
4.129032735e-06
4.125119562e-06
4.116473778e-06
4.103352314e-06
4.085878758e-06
3.985754106e-06
3.982167545e-06
3.974272723e-06
3.962310059e-06
3.94638046e-06
3.86286038e-06
3.859556325e-06
3.852295821e-06
3.841301679e-06
3.826660194e-06
3.751058754e-06
3.748008465e-06
3.741310201e-06
3.731169221e-06
3.717661227e-06
3.646097451e-06
3.643278452e-06
3.637089155e-06
3.627718196e-06
3.615232878e-06
3.546130438e-06
3.543523073e-06
3.537798228e-06
3.529129104e-06
3.517575933e-06
3.450384575e-06
3.447970998e-06
3.442670961e-06
3.434643607e-06
3.423943042e-06
3.35852372e-06
3.35628747e-06
3.351376166e-06
3.343936155e-06
3.334016143e-06
3.270361383e-06
3.268287283e-06
3.263731459e-06
3.256828713e-06
3.247622978e-06
3.185746075e-06
3.183820201e-06
3.179589468e-06
3.173178204e-06
3.164626102e-06
3.104518083e-06
3.102727792e-06
3.098794452e-06
3.092832935e-06
3.084879173e-06
3.026507065e-06
3.024840868e-06
3.021179821e-06
3.015630189e-06
3.008224562e-06
2.95154994e-06
2.949997398e-06
2.946585751e-06
2.94141348e-06
2.9345102e-06
2.879503186e-06
2.878054709e-06
2.874871502e-06
2.870044964e-06
2.863602065e-06
2.810232102e-06
2.808878802e-06
2.805904557e-06
2.801394375e-06
2.795372874e-06
2.743584384e-06
2.74231811e-06
2.739535001e-06
2.73531426e-06
2.729678426e-06
2.679353698e-06
2.678167116e-06
2.675559029e-06
2.671603377e-06
2.666320859e-06
2.617284969e-06
2.61617188e-06
2.613725184e-06
2.610013973e-06
2.605057309e-06
2.557093875e-06
2.55604909e-06
2.5537523e-06
2.550268092e-06
2.54561407e-06
2.498563505e-06
2.497582901e-06
2.495426911e-06
2.492155871e-06
2.487786055e-06
2.44155812e-06
2.440637927e-06
2.438614408e-06
2.435543903e-06
2.431441462e-06
2.3861249e-06
2.385261733e-06
2.383363309e-06
2.380482213e-06
2.376632358e-06
2.332335865e-06
2.331525783e-06
2.329743863e-06
2.327039244e-06
2.323424789e-06
2.280458745e-06
2.279697971e-06
2.278024422e-06
2.275484097e-06
2.272088888e-06
2.230529581e-06
2.229813391e-06
2.228237911e-06
2.225846381e-06
2.222649859e-06
2.183352931e-06
2.182677703e-06
2.181192476e-06
2.178937992e-06
2.175924521e-06
2.142975735e-06
2.142333573e-06
2.140921067e-06
2.138776919e-06
2.135910772e-06
0.0001176598291
0.0001868418618
0.0002427911987
0.0003025077609
0.0003688445626
0.000437789329
0.0005038275763
0.0005652281353
0.0006227591578
0.0006805310438
0.0007404364721
0.0008025753268
0.0008661316643
0.0009292747216
0.0009939994558
0.001062247984
0.001134896049
0.001213686739
0.001289578649
0.001310900405
0.001232567799
0.001076871119
0.0008933224244
0.0007125220587
0.0005507300841
0.0004137534411
0.0003104961027
0.0002310254604
0.0001706206624
0.0001250196634
9.075594426e-05
6.51477718e-05
4.618074587e-05
3.235556919e-05
2.252399897e-05
1.575373846e-05
1.125846247e-05
8.382125373e-06
6.602667763e-06
5.529496221e-06
4.888419075e-06
4.498674436e-06
4.248220614e-06
4.071738638e-06
3.933394931e-06
3.814680614e-06
3.706589384e-06
3.604990531e-06
3.508094073e-06
3.415158491e-06
3.325870571e-06
3.240062326e-06
3.157600798e-06
3.078344022e-06
3.002138544e-06
2.928835898e-06
2.858305145e-06
2.790421416e-06
2.725043195e-06
2.661975476e-06
2.600979514e-06
2.541785144e-06
2.484191149e-06
2.428066891e-06
2.373465905e-06
2.320452093e-06
2.269296326e-06
2.220020327e-06
2.173445006e-06
2.133551998e-06
0.000288490112
0.0008620406472
0.0001006320386
1.511390331e-05
3.127644166e-06
0.0004566347996
0.001451389442
0.0005214011503
5.704872397e-05
5.021075297e-06
0.0005307012685
0.001255851611
0.001217761928
0.000173512944
1.64843755e-05
0.0006151531456
0.001387222849
0.002381630229
0.0004339445525
4.473484011e-05
0.0007087997942
0.001533149486
0.00274631934
0.0007705845855
0.0001060398937
0.0007937947987
0.001592771841
0.002622382371
0.001182528372
0.0002234200285
0.0008618201067
0.001599679874
0.002460039744
0.001677970166
0.0004178234468
0.000916579
0.001594079162
0.002361405988
0.002379789818
0.0007100363659
0.0009653117965
0.00160327874
0.002345547617
0.002801344281
0.001044314633
0.001015374259
0.001626816992
0.002349620358
0.002953820052
0.001403892196
0.001069097584
0.001662871402
0.002368331313
0.003019055202
0.001801795873
0.001125623716
0.001702521462
0.002382454619
0.003035917757
0.002294266055
0.001182368018
0.001737030015
0.002376131124
0.003002956012
0.002737696308
0.001236898089
0.001766960662
0.002368170277
0.002969715908
0.002947030564
0.001292221318
0.001799706631
0.002370941072
0.002955031041
0.003089635433
0.001350794372
0.001837817164
0.002383445248
0.002948097227
0.003186653683
0.001411732794
0.001876025063
0.002394863659
0.002937317812
0.003233628424
0.001477574455
0.001920749685
0.00241770175
0.002937718213
0.003194181335
0.001536556914
0.001952691769
0.002418142913
0.002888819186
0.002960350226
0.001506253762
0.001800114376
0.002072291387
0.002286307407
0.00213197528
0.001346403201
0.001474359471
0.001527511876
0.001474740178
0.001271974702
0.001121666636
0.001141655684
0.001099213623
0.0009905717604
0.0008252984368
0.0008989221035
0.0008715352414
0.0008055329182
0.0007076126969
0.0005901031173
0.0007023433129
0.0006632957548
0.0006027820666
0.0005271342102
0.0004445321331
0.0005378909399
0.0005027958593
0.0004549650544
0.0003992487438
0.0003406080477
0.0004026850485
0.0003755042242
0.00034044662
0.0003008657814
0.0002598637108
0.0003022321842
0.0002824339592
0.0002573368561
0.0002292730752
0.0002002844938
0.0002251798733
0.0002112226903
0.0001935793249
0.0001738542902
0.000153414719
0.0001666230774
0.0001569872061
0.000144744472
0.0001309907941
0.0001166492942
0.0001223603815
0.0001158256468
0.0001074359813
9.793434282e-05
8.794494464e-05
8.903643605e-05
8.468491519e-05
7.901334895e-05
7.252153849e-05
6.56304257e-05
6.407063895e-05
6.122919425e-05
5.745279639e-05
5.307533169e-05
4.837929629e-05
4.552991532e-05
4.37141883e-05
4.124298649e-05
3.833767218e-05
3.518640993e-05
3.197753317e-05
3.084409477e-05
2.925864487e-05
2.73662215e-05
2.529056518e-05
2.231235677e-05
2.162053663e-05
2.062389597e-05
1.941570113e-05
1.807573225e-05
1.563751418e-05
1.522153406e-05
1.460521594e-05
1.384703385e-05
1.299711142e-05
1.119298828e-05
1.094230183e-05
1.056321061e-05
1.009131865e-05
9.557210511e-06
8.341364588e-06
8.185579394e-06
7.949085522e-06
7.652913495e-06
7.315184863e-06
6.572792187e-06
6.469446654e-06
6.315759556e-06
6.123803037e-06
5.904036092e-06
5.503978631e-06
5.428884224e-06
5.322015893e-06
5.190146018e-06
5.039200858e-06
4.864662221e-06
4.804825274e-06
4.72414896e-06
4.626391596e-06
4.514900295e-06
4.475937646e-06
4.424772519e-06
4.359016191e-06
4.280777926e-06
4.191990401e-06
4.226481942e-06
4.180819578e-06
4.124083155e-06
4.057510214e-06
3.982280936e-06
4.051152151e-06
4.009510831e-06
3.958799769e-06
3.899806238e-06
3.833316353e-06
3.914082563e-06
3.875748563e-06
3.829548911e-06
3.77603829e-06
3.715794006e-06
3.796684351e-06
3.76126485e-06
3.718775186e-06
3.669645069e-06
3.614334946e-06
3.689884766e-06
3.657112148e-06
3.617858898e-06
3.572481251e-06
3.521367294e-06
3.589512708e-06
3.559167539e-06
3.522824425e-06
3.480790565e-06
3.43340329e-06
3.493759557e-06
3.465644749e-06
3.431953943e-06
3.392957287e-06
3.348952442e-06
3.401878596e-06
3.375811998e-06
3.344551303e-06
3.308336109e-06
3.267430796e-06
3.313558498e-06
3.289371039e-06
3.260340442e-06
3.22667991e-06
3.188624862e-06
3.228635977e-06
3.206170555e-06
3.179186176e-06
3.147872767e-06
3.11244017e-06
3.146984541e-06
3.126096747e-06
3.100989704e-06
3.071832702e-06
3.038812895e-06
3.068469034e-06
3.04902705e-06
3.025642768e-06
2.998467189e-06
2.96766735e-06
2.992942559e-06
2.97482659e-06
2.953024139e-06
2.927670036e-06
2.898913515e-06
2.920262152e-06
2.903362797e-06
2.883013274e-06
2.859334114e-06
2.832458805e-06
2.850301445e-06
2.834518205e-06
2.8155032e-06
2.793364295e-06
2.768221036e-06
2.782939169e-06
2.768178495e-06
2.750387782e-06
2.72966366e-06
2.706113329e-06
2.718038047e-06
2.704214231e-06
2.687546507e-06
2.668121598e-06
2.646035826e-06
2.655407908e-06
2.642443537e-06
2.626806566e-06
2.608575119e-06
2.587836025e-06
2.594816811e-06
2.5826466e-06
2.567961594e-06
2.550832589e-06
2.531338231e-06
2.536000385e-06
2.524569309e-06
2.510769009e-06
2.49466416e-06
2.476326434e-06
2.47876301e-06
2.468027453e-06
2.455058303e-06
2.439915049e-06
2.422663325e-06
2.422975243e-06
2.412894716e-06
2.400707711e-06
2.386469254e-06
2.370239641e-06
2.368691686e-06
2.359230216e-06
2.347783092e-06
2.334401147e-06
2.319139693e-06
2.315972393e-06
2.307087273e-06
2.29633087e-06
2.283749956e-06
2.26939502e-06
2.265088516e-06
2.256739687e-06
2.246628805e-06
2.234798242e-06
2.221294027e-06
2.216057348e-06
2.208194128e-06
2.198670335e-06
2.187524655e-06
2.174798822e-06
2.169705988e-06
2.162290099e-06
2.153308785e-06
2.142796857e-06
2.130791951e-06
2.129993914e-06
2.122937065e-06
2.114391056e-06
2.104387958e-06
2.092962594e-06
3.833647776e-07
5.586331915e-08
1.037103626e-08
3.015532487e-09
1.322005365e-09
7.029668971e-10
4.149028714e-10
2.743356429e-10
2.06945679e-10
1.757538843e-10
1.618052226e-10
1.557067795e-10
1.530564197e-10
1.518929352e-10
1.513854477e-10
1.512159837e-10
1.510786322e-10
1.509105931e-10
1.508339403e-10
1.507917972e-10
1.50758666e-10
1.507280838e-10
1.506988807e-10
1.506714235e-10
1.50645957e-10
1.506225332e-10
1.506010907e-10
1.505814909e-10
1.505632661e-10
1.505462228e-10
1.505304505e-10
1.505159548e-10
1.50502502e-10
1.504900007e-10
1.504782983e-10
1.50467602e-10
1.504580264e-10
1.504491994e-10
1.504410435e-10
1.504335814e-10
1.504267107e-10
1.504202497e-10
1.504141585e-10
1.504081825e-10
1.504027385e-10
1.503983892e-10
1.503948662e-10
1.503919065e-10
1.503891368e-10
1.503868869e-10
1.503848737e-10
1.503833382e-10
1.503818696e-10
1.503802381e-10
1.503722367e-10
1.503109052e-10
1.499193531e-10
1.480936102e-10
1.416950809e-10
1.333109552e-10
1.123603517e-06
2.421983547e-07
4.079134473e-08
9.387969073e-09
3.535046484e-09
1.790063499e-09
1.065167982e-09
7.112397114e-10
5.300902201e-10
4.379362208e-10
3.921378431e-10
3.698559324e-10
3.591607157e-10
3.540338843e-10
3.515766587e-10
3.504759063e-10
3.498420607e-10
3.493514533e-10
3.491197665e-10
3.48992107e-10
3.488971657e-10
3.488095253e-10
3.48728575e-10
3.48656152e-10
3.485912512e-10
3.485334249e-10
3.484811532e-10
3.484327353e-10
3.483879191e-10
3.483490291e-10
3.483167903e-10
3.482894616e-10
3.482640454e-10
3.482401451e-10
3.482188346e-10
3.482019279e-10
3.481902848e-10
3.481773884e-10
3.481640481e-10
3.481542874e-10
3.481483999e-10
3.481429651e-10
3.481376708e-10
3.48133516e-10
3.481286276e-10
3.481255323e-10
3.481242215e-10
3.48125597e-10
3.481245576e-10
3.481275401e-10
3.481292409e-10
3.481340484e-10
3.481367555e-10
3.481399736e-10
3.481291557e-10
3.480491016e-10
3.476598839e-10
3.463877287e-10
3.441336711e-10
3.430324203e-10
3.842706502e-06
6.696965015e-07
8.26950759e-08
1.563543333e-08
5.341713014e-09
2.650216636e-09
1.615252715e-09
1.116402648e-09
8.473505797e-10
6.985833125e-10
6.16925863e-10
5.72896679e-10
5.495952193e-10
5.374157666e-10
5.31097437e-10
5.278966309e-10
5.262072728e-10
5.252510229e-10
5.247967158e-10
5.245507799e-10
5.243747412e-10
5.242179284e-10
5.240729571e-10
5.239430296e-10
5.238282377e-10
5.237257908e-10
5.236347846e-10
5.235550952e-10
5.234850504e-10
5.234231903e-10
5.233697112e-10
5.233244853e-10
5.232861715e-10
5.232561826e-10
5.232307549e-10
5.232109352e-10
5.231988861e-10
5.231867182e-10
5.231748105e-10
5.23166667e-10
5.231635559e-10
5.231614941e-10
5.23162092e-10
5.231675645e-10
5.231742194e-10
5.231822063e-10
5.231911207e-10
5.232038249e-10
5.232133545e-10
5.23229331e-10
5.232436678e-10
5.232629244e-10
5.232785451e-10
5.232995223e-10
5.233084145e-10
5.233053596e-10
5.232833437e-10
5.235786459e-10
5.259045745e-10
5.2955959e-10
1.340085879e-05
3.258579526e-06
3.859451066e-07
3.730431819e-08
8.276817847e-09
3.539651966e-09
2.094422792e-09
1.449607712e-09
1.105151236e-09
9.087190344e-10
7.944822003e-10
7.282408367e-10
6.903242888e-10
6.68950806e-10
6.570955026e-10
6.506707437e-10
6.473482136e-10
6.45765901e-10
6.450623638e-10
6.447325455e-10
6.445354014e-10
6.4438187e-10
6.442491753e-10
6.441341873e-10
6.440360663e-10
6.439522753e-10
6.438799906e-10
6.438185693e-10
6.437666199e-10
6.437230243e-10
6.436872816e-10
6.436591553e-10
6.43638017e-10
6.436249794e-10
6.436169409e-10
6.436145577e-10
6.436192355e-10
6.436241984e-10
6.436297528e-10
6.436379806e-10
6.436495365e-10
6.43662572e-10
6.436781434e-10
6.436975895e-10
6.437191784e-10
6.437422834e-10
6.437655886e-10
6.437916044e-10
6.438152901e-10
6.438444041e-10
6.438727169e-10
6.439055186e-10
6.439338409e-10
6.439711441e-10
6.440089031e-10
6.440996764e-10
6.443952819e-10
6.456075307e-10
6.493650518e-10
6.536489334e-10
2.642902424e-05
8.970532502e-06
2.045876647e-06
2.258556913e-07
2.814299995e-08
7.384599194e-09
3.335993722e-09
1.999344886e-09
1.403059444e-09
1.097377391e-09
9.298701628e-10
8.349787492e-10
7.80483316e-10
7.488980276e-10
7.306470155e-10
7.202887795e-10
7.14836751e-10
7.123311689e-10
7.112375097e-10
7.107833592e-10
7.105832973e-10
7.104782642e-10
7.104134465e-10
7.103709196e-10
7.10343491e-10
7.10326415e-10
7.103163437e-10
7.103119958e-10
7.103123243e-10
7.103167508e-10
7.103250588e-10
7.103368446e-10
7.103520806e-10
7.103715448e-10
7.103935161e-10
7.104183523e-10
7.104464672e-10
7.104743154e-10
7.105019202e-10
7.105305352e-10
7.105604023e-10
7.105904182e-10
7.106214184e-10
7.106539782e-10
7.1068744e-10
7.107216937e-10
7.107559247e-10
7.107909033e-10
7.108244036e-10
7.108608074e-10
7.108968508e-10
7.109355849e-10
7.109716662e-10
7.110161136e-10
7.110715721e-10
7.112031169e-10
7.115843583e-10
7.127996135e-10
7.157398646e-10
7.186564773e-10
3.395997748e-05
1.510079166e-05
5.714888582e-06
1.303207176e-06
1.491092132e-07
2.407806437e-08
7.302519234e-09
3.335103115e-09
1.941859093e-09
1.342783948e-09
1.058004737e-09
9.139031904e-10
8.370800515e-10
7.941999915e-10
7.694870121e-10
7.551527367e-10
7.473265135e-10
7.435391657e-10
7.417785917e-10
7.410299825e-10
7.407372967e-10
7.406380315e-10
7.40621864e-10
7.406438212e-10
7.406840992e-10
7.407319033e-10
7.407823774e-10
7.408334621e-10
7.40884047e-10
7.409338655e-10
7.409830615e-10
7.410315155e-10
7.410794488e-10
7.411273878e-10
7.411747688e-10
7.412218521e-10
7.412687853e-10
7.413143887e-10
7.413587892e-10
7.414025889e-10
7.414459179e-10
7.414881608e-10
7.415298477e-10
7.415710784e-10
7.416115557e-10
7.416516793e-10
7.416913581e-10
7.417307366e-10
7.417687305e-10
7.418071581e-10
7.418447625e-10
7.418834676e-10
7.419210736e-10
7.419652905e-10
7.420245413e-10
7.421503912e-10
7.424688364e-10
7.433110129e-10
7.450079874e-10
7.465260531e-10
5.372780725e-05
2.105859843e-05
1.066280164e-05
4.28525401e-06
8.356780309e-07
9.835061437e-08
1.949452668e-08
6.604360566e-09
3.081187011e-09
1.785432219e-09
1.242885276e-09
9.995158725e-10
8.835455322e-10
8.242745287e-10
7.917715676e-10
7.730489322e-10
7.625363306e-10
7.571021305e-10
7.543576684e-10
7.530784806e-10
7.5253869e-10
7.523505344e-10
7.523250016e-10
7.523733966e-10
7.524535434e-10
7.525446824e-10
7.526372749e-10
7.527270881e-10
7.528126691e-10
7.528938627e-10
7.529708368e-10
7.530439279e-10
7.531136073e-10
7.531803026e-10
7.532441353e-10
7.533054373e-10
7.533644204e-10
7.534209626e-10
7.5347527e-10
7.535276654e-10
7.535783133e-10
7.536270512e-10
7.536742094e-10
7.537198376e-10
7.537638473e-10
7.538065168e-10
7.538479211e-10
7.538883254e-10
7.539273694e-10
7.539655916e-10
7.540026298e-10
7.540396844e-10
7.54076507e-10
7.541188046e-10
7.541763108e-10
7.542848248e-10
7.545197126e-10
7.550312137e-10
7.558969129e-10
7.565931279e-10
0.0001049932977
2.570793603e-05
1.520433638e-05
8.611876562e-06
3.210152922e-06
4.661414195e-07
6.202633928e-08
1.510768905e-08
5.576383607e-09
2.659738193e-09
1.571075035e-09
1.129581547e-09
9.403764967e-10
8.532672409e-10
8.092102813e-10
7.848650071e-10
7.711629597e-10
7.63752919e-10
7.597477855e-10
7.577065927e-10
7.567476078e-10
7.563553508e-10
7.562474314e-10
7.562759687e-10
7.563652449e-10
7.564773545e-10
7.565942847e-10
7.56708073e-10
7.568157788e-10
7.569167471e-10
7.570111659e-10
7.570995883e-10
7.571826417e-10
7.57260888e-10
7.573347826e-10
7.574047606e-10
7.574711811e-10
7.575342893e-10
7.575943674e-10
7.576516942e-10
7.5770649e-10
7.577588314e-10
7.578089547e-10
7.578570104e-10
7.579030827e-10
7.579473228e-10
7.579897679e-10
7.580306441e-10
7.580699682e-10
7.581079865e-10
7.58144752e-10
7.581811036e-10
7.582178868e-10
7.582600329e-10
7.583173769e-10
7.58415923e-10
7.585995076e-10
7.589297687e-10
7.59399845e-10
7.597272796e-10
0.0001968550921
3.202613474e-05
1.823345854e-05
1.261372732e-05
7.383129108e-06
1.998528391e-06
2.319157395e-07
3.886321572e-08
1.115614266e-08
4.371953368e-09
2.155835145e-09
1.340818542e-09
1.022934484e-09
8.901524518e-10
8.285610414e-10
7.963775731e-10
7.785091237e-10
7.686048413e-10
7.630169708e-10
7.59982308e-10
7.584299229e-10
7.577098414e-10
7.57438787e-10
7.573979686e-10
7.574667187e-10
7.575813326e-10
7.577101783e-10
7.578387798e-10
7.579612949e-10
7.580758995e-10
7.581824554e-10
7.582815381e-10
7.583738601e-10
7.584601436e-10
7.58541029e-10
7.586170751e-10
7.586887638e-10
7.587564868e-10
7.58820606e-10
7.588814307e-10
7.589392368e-10
7.589942201e-10
7.590466106e-10
7.590965928e-10
7.591443285e-10
7.591899778e-10
7.592336301e-10
7.592754406e-10
7.593155086e-10
7.593540318e-10
7.593912841e-10
7.594281108e-10
7.594660945e-10
7.595101766e-10
7.595706136e-10
7.596684212e-10
7.598320261e-10
7.600874223e-10
7.604031297e-10
7.605848426e-10
0.0003338698765
5.0809257e-05
2.115591677e-05
1.589734006e-05
1.141071774e-05
5.467381296e-06
9.017776896e-07
1.06516902e-07
2.312370018e-08
7.491383497e-09
3.121594912e-09
1.665215689e-09
1.142014243e-09
9.404769974e-10
8.53709672e-10
8.106679328e-10
7.871663307e-10
7.739546217e-10
7.662924217e-10
7.619477291e-10
7.59588295e-10
7.583948362e-10
7.578653191e-10
7.576968387e-10
7.577117018e-10
7.578104935e-10
7.57941214e-10
7.580788136e-10
7.582124199e-10
7.583380281e-10
7.584546911e-10
7.585627424e-10
7.58662918e-10
7.587560481e-10
7.588429015e-10
7.58924161e-10
7.590004094e-10
7.590721445e-10
7.59139797e-10
7.592037358e-10
7.592642871e-10
7.593217191e-10
7.593762856e-10
7.594282017e-10
7.59477654e-10
7.595248174e-10
7.595698322e-10
7.59612859e-10
7.59654043e-10
7.596935942e-10
7.59731901e-10
7.597699751e-10
7.598100024e-10
7.59857473e-10
7.599232442e-10
7.600258095e-10
7.60186308e-10
7.604162154e-10
7.606753993e-10
7.607957361e-10
0.0005181897758
9.389776622e-05
2.402727479e-05
1.853315105e-05
1.514957109e-05
9.809987072e-06
2.608572249e-06
3.060659596e-07
4.951930358e-08
1.297977126e-08
4.582825931e-09
2.109934773e-09
1.296508692e-09
1.004829884e-09
8.861501285e-10
8.292970941e-10
7.984896783e-10
7.809306517e-10
7.705221432e-10
7.644299434e-10
7.60976252e-10
7.591200179e-10
7.582090663e-10
7.578366954e-10
7.577535933e-10
7.578129362e-10
7.579336773e-10
7.580745868e-10
7.582165978e-10
7.583519124e-10
7.584780098e-10
7.585946373e-10
7.587024065e-10
7.588021846e-10
7.588948435e-10
7.58981175e-10
7.590618678e-10
7.591375126e-10
7.592086175e-10
7.592756159e-10
7.593388867e-10
7.593987503e-10
7.59455491e-10
7.595093573e-10
7.595605609e-10
7.596093032e-10
7.596557507e-10
7.597000825e-10
7.597424921e-10
7.597832579e-10
7.598228983e-10
7.598626797e-10
7.59905351e-10
7.599571022e-10
7.600292681e-10
7.601387379e-10
7.603023123e-10
7.605239055e-10
7.607586472e-10
7.608438488e-10
0.0007593532751
0.0001610029088
3.204553464e-05
2.201635807e-05
1.92927049e-05
1.440467254e-05
5.908580056e-06
8.423422934e-07
1.142798848e-07
2.33046364e-08
6.7979815e-09
2.692216727e-09
1.483659599e-09
1.082067515e-09
9.261166517e-10
8.52886901e-10
8.131435345e-10
7.901226844e-10
7.761928801e-10
7.678252002e-10
7.629208488e-10
7.601637057e-10
7.58714776e-10
7.580386984e-10
7.57797517e-10
7.57783881e-10
7.578774509e-10
7.580135649e-10
7.581604713e-10
7.583041288e-10
7.584392208e-10
7.585643629e-10
7.586797962e-10
7.587863263e-10
7.588848896e-10
7.589763744e-10
7.590615755e-10
7.591411769e-10
7.59215769e-10
7.592858546e-10
7.593518673e-10
7.594141758e-10
7.594731008e-10
7.595289236e-10
7.595818888e-10
7.596322267e-10
7.596801295e-10
7.597258031e-10
7.597694843e-10
7.598115392e-10
7.598526611e-10
7.598944443e-10
7.599402157e-10
7.59996805e-10
7.600756917e-10
7.601923523e-10
7.603601927e-10
7.605778438e-10
7.607971757e-10
7.608540851e-10
0.001043537699
0.0002590876671
5.173811783e-05
2.620325889e-05
2.450025955e-05
1.995500549e-05
1.04219422e-05
2.14843174e-06
2.590462682e-07
4.258582272e-08
9.960264126e-09
3.366902404e-09
1.682254744e-09
1.166107034e-09
9.720279281e-10
8.810377052e-10
8.310795175e-10
8.016273646e-10
7.834646692e-10
7.722972977e-10
7.655706879e-10
7.616535396e-10
7.594896083e-10
7.583919896e-10
7.579176574e-10
7.577862676e-10
7.578280888e-10
7.579470743e-10
7.580932343e-10
7.582429186e-10
7.583861977e-10
7.585196816e-10
7.586428419e-10
7.5875626e-10
7.588608701e-10
7.589576375e-10
7.590474533e-10
7.591310965e-10
7.592092394e-10
7.59282458e-10
7.593512424e-10
7.594160129e-10
7.594771299e-10
7.595349133e-10
7.595896419e-10
7.596415745e-10
7.596909311e-10
7.597379517e-10
7.597829257e-10
7.598263365e-10
7.598690894e-10
7.599131291e-10
7.599623448e-10
7.600240842e-10
7.601096458e-10
7.602330268e-10
7.604045793e-10
7.606186647e-10
7.608248138e-10
7.608536251e-10
0.001342940551
0.0003880505021
8.427627201e-05
2.975809493e-05
3.018111198e-05
2.643925505e-05
1.610648558e-05
4.695325104e-06
5.615155937e-07
7.944512189e-08
1.486597818e-08
4.221021894e-09
1.906586498e-09
1.260009453e-09
1.024357751e-09
9.135900861e-10
8.520716919e-10
8.152868429e-10
7.922550535e-10
7.778301225e-10
7.689467272e-10
7.6362899e-10
7.605784762e-10
7.589395699e-10
7.581508453e-10
7.578492664e-10
7.578078778e-10
7.57892428e-10
7.580291542e-10
7.581808978e-10
7.583307417e-10
7.584720103e-10
7.586027798e-10
7.587231287e-10
7.588338729e-10
7.589360135e-10
7.59030523e-10
7.59118271e-10
7.592000112e-10
7.592763921e-10
7.593479645e-10
7.594152031e-10
7.594785148e-10
7.595382588e-10
7.595947474e-10
7.596482659e-10
7.596990686e-10
7.597474384e-10
7.59793734e-10
7.598385854e-10
7.5988314e-10
7.59929697e-10
7.599826504e-10
7.600496939e-10
7.601417177e-10
7.602711314e-10
7.604454315e-10
7.606554285e-10
7.608488397e-10
7.60848112e-10
0.001672940689
0.0005542556217
0.0001393640143
3.93217756e-05
3.889428802e-05
3.407445367e-05
2.197695811e-05
8.55532445e-06
1.242457253e-06
1.623087757e-07
2.329560384e-08
5.30745679e-09
2.156947914e-09
1.366430776e-09
1.08461925e-09
9.510011202e-10
8.76138495e-10
8.309686621e-10
8.024271342e-10
7.843218479e-10
7.72992581e-10
7.660662412e-10
7.61980724e-10
7.596944886e-10
7.585156081e-10
7.579909595e-10
7.578313979e-10
7.578601322e-10
7.579754576e-10
7.581231323e-10
7.5827667e-10
7.584245013e-10
7.585624238e-10
7.586895732e-10
7.58806445e-10
7.589139885e-10
7.590132249e-10
7.591051019e-10
7.591904536e-10
7.592700011e-10
7.593443587e-10