/*--------------------------------*- C++ -*----------------------------------*\
  =========                 |
  \\      /  F ield         | OpenFOAM: The Open Source CFD Toolbox
   \\    /   O peration     | Website:  https://openfoam.org
    \\  /    A nd           | Version:  10
     \\/     M anipulation  |
\*---------------------------------------------------------------------------*/
FoamFile
{
    format      ascii;
    class       volScalarField;
    location    "0.0250188088";
    object      H2O;
}
// * * * * * * * * * * * * * * * * * * * * * * * * * * * * * * * * * * * * * //

dimensions      [0 0 0 0 0 0 0];

internalField   nonuniform List<scalar> 
5170
(
2.70730872e-09
2.702921149e-09
2.673197352e-09
2.461264459e-09
1.820445594e-10
5.315386622e-09
5.301716454e-09
5.238557855e-09
4.915303503e-09
3.072485164e-09
7.899234817e-09
7.876411879e-09
7.784297169e-09
7.39804058e-09
5.876822454e-09
1.04524466e-08
1.042160543e-08
1.030817225e-08
9.897690023e-09
8.687216132e-09
1.297043604e-08
1.293306419e-08
1.280663345e-08
1.240298693e-08
1.150030219e-08
1.54519315e-08
1.541071091e-08
1.527996792e-08
1.491043799e-08
1.431234811e-08
1.789922304e-08
1.785626603e-08
1.772948427e-08
1.742107517e-08
1.712333627e-08
2.031786428e-08
2.027599928e-08
2.016058682e-08
1.993578113e-08
1.993533759e-08
2.271284643e-08
2.267465464e-08
2.257888968e-08
2.245800838e-08
2.275139065e-08
2.508955634e-08
2.505674384e-08
2.498636117e-08
2.499217661e-08
2.557528257e-08
2.745140851e-08
2.742564307e-08
2.738506528e-08
2.754091193e-08
2.840857614e-08
2.979935335e-08
2.978293876e-08
2.978185708e-08
3.010415237e-08
3.124924165e-08
3.21341859e-08
3.212958892e-08
3.218002628e-08
3.268212192e-08
3.409457466e-08
3.445675943e-08
3.446645473e-08
3.457906311e-08
3.527449933e-08
3.694156197e-08
3.676719177e-08
3.679408009e-08
3.697858198e-08
3.787938294e-08
3.978618578e-08
3.906483212e-08
3.911221072e-08
3.93816888e-08
4.049645902e-08
4.262077361e-08
4.134947609e-08
4.142108846e-08
4.17855068e-08
4.311995296e-08
4.544710083e-08
4.362132875e-08
4.372175292e-08
4.419802552e-08
4.576102308e-08
4.828829271e-08
4.59038572e-08
4.61084792e-08
4.725198794e-08
5.300769236e-08
6.977127827e-08
5.507668575e-08
8.712642907e-08
3.601471845e-07
2.254984208e-06
1.075607793e-05
0.09522013032
0.09521917045
0.09521994515
0.09521944401
0.09521904613
0.09578183897
0.09571366126
0.09571436544
0.09572302559
0.09580571693
0.09608593214
0.0960059203
0.0960051345
0.09603133539
0.09612940147
0.0962663512
0.09618929899
0.09618627717
0.09622403534
0.09631077861
0.0963810487
0.09631212908
0.09630959382
0.09634774182
0.09642924955
0.09644820014
0.09639488564
0.09638968649
0.09642940165
0.09649681026
0.09650653502
0.09645121506
0.09644778686
0.0964842356
0.0965472608
0.09654947538
0.09650327645
0.0964981443
0.09652711649
0.09659867005
0.09659518624
0.09654173157
0.09653684893
0.09657745655
0.0966490278
0.09663975181
0.09658818815
0.0965829005
0.09662428749
0.0966829993
0.09667210796
0.09663086366
0.09662579286
0.09666420861
0.0967088647
0.09669767997
0.09666680888
0.09666321914
0.09669113291
0.09673052605
0.09671889341
0.09669183097
0.0966889928
0.09671514778
0.09675143617
0.09673924545
0.09671385974
0.0967117313
0.096735704
0.09677091356
0.09675884981
0.09673303163
0.09673148195
0.09675507646
0.09678860501
0.09677697484
0.09675158442
0.09675059001
0.09677365826
0.09680456602
0.09679334337
0.09676970026
0.09676926563
0.09679091586
0.09681858006
0.09680720888
0.09678669057
0.09678696011
0.09680653829
0.09683025003
0.09682794231
0.09680423298
0.09680298395
0.09681790612
0.09683412101
0.09802072618
0.09703505239
0.09678355629
0.09664747668
0.09640943006
3.128199425e-07
2.101067029e-06
3.172340009e-05
0.0004726226424
0.006333074253
1.500676967e-06
9.856541611e-06
0.0001198119616
0.001257290391
0.009608995285
4.884687732e-06
2.943850365e-05
0.00029519847
0.002349424918
0.01212746771
1.270560374e-05
6.945735797e-05
0.0005878195842
0.003717411099
0.01423239507
2.91456928e-05
0.0001462495206
0.001056336379
0.005321799023
0.01602779619
6.150612127e-05
0.0002849705703
0.001741532412
0.007044796693
0.01770076696
0.0001218065055
0.000518753915
0.002657499469
0.008808994317
0.01934846131
0.0002287992367
0.0008868589565
0.003799307244
0.01059396461
0.02099326133
0.0004135648513
0.001442728402
0.005155202101
0.01237842838
0.02259567832
0.0007243595502
0.002239023356
0.006701716276
0.01418839021
0.02420398278
0.001237983991
0.003338993352
0.008428000689
0.01604893599
0.02585076208
0.002094904177
0.004774236021
0.01029767804
0.01797943001
0.02755332552
0.003484994342
0.00655797957
0.01232212681
0.01999307335
0.02932670479
0.005369994305
0.008650716612
0.01449984114
0.0220857352
0.03114996754
0.007925570987
0.01115007071
0.01689955454
0.02430327608
0.03305995615
0.01101307266
0.01403434022
0.01956140564
0.02670976046
0.03511976838
0.01464582435
0.01741441158
0.02262110947
0.02941589474
0.03740834064
0.01892392798
0.02137880733
0.02615233309
0.03250732991
0.04005186144
0.02353544844
0.02570516652
0.03006191964
0.0359978226
0.04312421556
0.02843512563
0.03035830446
0.0342539333
0.03956290378
0.04587671428
0.03339501476
0.03491570251
0.03795136072
0.04194918651
0.04644783494
0.03705818306
0.03788517171
0.03952375786
0.04161605389
0.04382881669
0.03682251783
0.03710566586
0.03764140645
0.03826273798
0.03880032891
0.03310996095
0.03311711984
0.03308617237
0.03295370747
0.03265430188
0.02774468682
0.0276513032
0.02741850186
0.02703215588
0.02648209731
0.02222829538
0.02212098928
0.02187205736
0.02148240983
0.02095584722
0.01770790351
0.01761746671
0.0174079699
0.01708477181
0.0166562328
0.01409656754
0.01402628673
0.01386479075
0.01361764494
0.0132927267
0.01130038164
0.01124811876
0.01112867634
0.0109465989
0.01070800245
0.009168675859
0.009130659555
0.009044074057
0.008912297032
0.008739713507
0.00755694397
0.007529535758
0.00746726253
0.007372511838
0.007248293752
0.006344039199
0.006324235585
0.006279324256
0.006210963126
0.006121169822
0.005433396596
0.005418897786
0.005386087977
0.005336120102
0.005270334534
0.00475064421
0.004739785811
0.004715282002
0.004677955228
0.004628698491
0.00423945993
0.004231077678
0.004212232735
0.004183534862
0.00414558587
0.003856716014
0.003850016841
0.003835021853
0.003812206408
0.003781985001
0.003568605137
0.003563059049
0.003550703429
0.003531927047
0.003507024293
0.003348480236
0.003343742811
0.003333234239
0.003317285962
0.003296115365
0.003175810068
0.003171661616
0.003162492613
0.003148593692
0.003130132176
0.003035438429
0.003031740973
0.003023590341
0.003011245944
0.002994841767
0.002916727027
0.002913392671
0.002906055726
0.002894949872
0.00288018593
0.002812584143
0.00280955507
0.002802897151
0.002792821957
0.002779423471
0.00271849442
0.002715729906
0.00270965734
0.002700468671
0.002688244984
0.002631688704
0.002629158102
0.00262360086
0.002615191471
0.002604000745
0.002550498776
0.002548177148
0.00254307937
0.002535364233
0.002525094047
0.002473913886
0.00247178023
0.002467095109
0.002460003283
0.002450559908
0.002401299445
0.002399335466
0.002395022671
0.002388493197
0.002379796052
0.002332230981
0.002330420613
0.002326444753
0.002320424245
0.002312402789
0.002266403417
0.002264732375
0.00226106214
0.002255503386
0.002248095184
0.002203574477
0.002202030036
0.002198637471
0.002193498332
0.002186647647
0.002143531994
0.002142102609
0.002138962598
0.002134205269
0.002127862087
0.002086126314
0.002084801896
0.002081892068
0.002077482737
0.00207160225
0.002031175082
0.002029946326
0.002027246426
0.002023154574
0.002017696357
0.00197852814
0.001977386761
0.001974878612
0.001971076823
0.001966004545
0.001928046656
0.001926985203
0.001924652497
0.001921116152
0.001916397158
0.001879603837
0.00187861559
0.001876443577
0.00187315042
0.001868755181
0.001833084508
0.001832163384
0.001830138751
0.001827068674
0.00182297051
0.001788381869
0.001787522346
0.001785632972
0.001782767676
0.001778942292
0.001745395781
0.001744592865
0.001742827813
0.001740150776
0.001736576224
0.001704025775
0.001703274916
0.001701624197
0.001699120319
0.001695776533
0.00166417546
0.001663472585
0.001661927267
0.001659583041
0.001656452064
0.001625742697
0.00162508409
0.001623636004
0.00162143908
0.001618504496
0.001588645432
0.00158802787
0.001586669944
0.001584609619
0.001581857186
0.001552797878
0.0015522183
0.001550943798
0.001549009872
0.001546426013
0.00151815775
0.001517613583
0.001516416874
0.001514600833
0.001512174222
0.001484645738
0.001484134415
0.001483009847
0.001481303135
0.001479022402
0.001452290803
0.00145181021
0.001450753178
0.001449148836
0.001447004665
0.001421018937
0.001420566555
0.00141957151
0.001418061149
0.001416042426
0.001391332967
0.001390906858
0.001389969619
0.001388546949
0.001386645288
0.001365860835
0.001365456018
0.001364565552
0.001363213792
0.001361406754
0.02309407741
0.02402847255
0.02477808994
0.02561336593
0.02648398786
0.02749166358
0.02861625849
0.02981472275
0.03099862217
0.03223047349
0.0335455414
0.03494751026
0.03644435623
0.03797968442
0.03960016823
0.04136402198
0.04332425725
0.04565931526
0.04846041742
0.05051387502
0.04952924848
0.04522539708
0.03905075827
0.03236037063
0.02604936037
0.02055395833
0.01633546394
0.01305093253
0.0105305891
0.008611147145
0.007155411625
0.006053668183
0.005220531621
0.004591080612
0.00411630092
0.003758396122
0.003487365024
0.003279231592
0.00311528647
0.002981568202
0.002868187087
0.002768502043
0.002678261594
0.002594849045
0.002516687586
0.002442825163
0.002372668909
0.002305826612
0.002242019565
0.002181027425
0.002122656624
0.002066775205
0.002013214793
0.001961838876
0.001912520772
0.001865143994
0.001819602748
0.001775798113
0.001733637706
0.001693027266
0.0016538774
0.001616091032
0.001579593318
0.001544300597
0.00151017801
0.001477146041
0.001445240537
0.001414381401
0.001385080398
0.00135991953
0.0566928393
0.1104740499
0.09645913401
0.08621117921
0.06351088517
0.05019893882
0.0936023818
0.1061486042
0.08239530246
0.0508964808
0.0472105852
0.08328731889
0.1136920401
0.08583600536
0.04863290609
0.04563551837
0.07878389423
0.1157172088
0.09354172397
0.0577938236
0.04474470674
0.0753266281
0.1095417575
0.101938895
0.07017566948
0.04435291595
0.0725121762
0.103262706
0.1090163639
0.08149566102
0.04431033319
0.07043806059
0.09903061217
0.1140408335
0.0919323674
0.04451258204
0.06884774136
0.09555387968
0.1165778802
0.1005120707
0.04481708677
0.0675587097
0.09248177852
0.1147894099
0.1069312402
0.04527964209
0.06663407978
0.09009377907
0.1125525001
0.1119084231
0.0459272177
0.06615276982
0.08845616934
0.1105925584
0.1155817024
0.04674190738
0.06597443961
0.08717468613
0.1086087246
0.118129134
0.04769591271
0.06595617619
0.08588681837
0.1060233509
0.1181234875
0.0487020332
0.0660094563
0.08477355644
0.1038434742
0.117196047
0.04980549806
0.06621727287
0.08394570748
0.1021250936
0.1161729907
0.0510657473
0.06663743588
0.0834167689
0.1007045779
0.115046101
0.0524858641
0.06718218896
0.0830197015
0.09946867769
0.1138081881
0.05430642089
0.06830012507
0.08351230361
0.09947628282
0.1134262992
0.05666313932
0.07019659098
0.08511919517
0.1008799259
0.1137999891
0.05757390964
0.06877391401
0.080623566
0.09414442061
0.1097666742
0.05418682523
0.06031376197
0.06475457425
0.06680607951
0.06527437008
0.0474052442
0.04926639755
0.04909712135
0.04659251053
0.04174443824
0.03958527098
0.03912631866
0.03717872849
0.03385369675
0.02947413451
0.03210841054
0.03080291824
0.02859252125
0.02566313588
0.02229610121
0.02557619866
0.02421534264
0.02229578123
0.01998916085
0.01748582129
0.02009146584
0.01894810053
0.01745394319
0.01573807468
0.01392604679
0.01596142332
0.01507912944
0.0139595527
0.01269624423
0.01137391349
0.01276668141
0.01211034385
0.01128739775
0.01036390711
0.009397510326
0.0103207554
0.009840609712
0.009240635253
0.008566846645
0.007858737444
0.008458188561
0.008109372087
0.007673047065
0.007180937793
0.006660150545
0.00704411137
0.006790627824
0.006472532287
0.006111499768
0.005726104932
0.005971966633
0.005786247231
0.005552352667
0.005285004212
0.004996912493
0.005159367784
0.005021025304
0.004846402071
0.004645476373
0.004426952171
0.00454391994
0.004438339961
0.004305135798
0.004151075263
0.003982133076
0.004078591242
0.003995548684
0.003891200457
0.003770144882
0.003636498703
0.003727066609
0.003659540286
0.003575311417
0.003477515599
0.003369007706
0.0034604224
0.003403692201
0.003333591306
0.00325227633
0.003161751105
0.003255433317
0.00320640271
0.003146397229
0.003076925872
0.002999424266
0.003093883319
0.003050565579
0.002997994424
0.002937254594
0.002869405133
0.002962111911
0.002923245651
0.002876375807
0.002822310372
0.00276185867
0.002850399474
0.002815174418
0.002772875379
0.002724128269
0.002669574804
0.002752193861
0.002720068136
0.002681585677
0.002637249664
0.002587585535
0.002663288017
0.002633874981
0.002598682161
0.002558126683
0.0025126502
0.002581087231
0.002554088622
0.002521793588
0.0024845558
0.002442753497
0.002504027734
0.002479198858
0.002449491871
0.002415211348
0.002376685212
0.002431167272
0.002408298512
0.002380922036
0.002349302874
0.002313727738
0.002361921834
0.002340829392
0.002315562289
0.002286352858
0.002253453153
0.002295907735
0.002276428815
0.002253077726
0.002226058712
0.002195594136
0.002232854207
0.002214843226
0.002193236063
0.002168212939
0.002139970416
0.002172548098
0.002155874349
0.002135857143
0.002112655881
0.002086444865
0.002114802414
0.002099348323
0.002080782871
0.002059247324
0.002034896342
0.002059491562
0.002045151201
0.002027912457
0.002007900799
0.001985253735
0.002006452145
0.001993129763
0.001977104871
0.00195848909
0.001937404875
0.001955552686
0.001943162061
0.001928249252
0.00191091373
0.001891264702
0.001906670957
0.00189513439
0.001881241806
0.001865082007
0.001846752534
0.001859694267
0.001848941358
0.001835985707
0.001820906726
0.001803791683
0.001814520259
0.001804487276
0.001792393109
0.001778308882
0.001762312778
0.001771052924
0.001761681712
0.001750380109
0.001737211913
0.001722247282
0.001729202768
0.001720440731
0.00170986926
0.001697545682
0.001683532982
0.001688877885
0.00168067682
0.001670778126
0.001659233355
0.001646099219
0.001649991541
0.001642308414
0.00163303118
0.001622206373
0.001609885149
0.001612448637
0.001605243975
0.0015965411
0.001586382103
0.00157481322
0.001576176964
0.00156941651
0.001561246887
0.001551706181
0.001540836258
0.001541093625
0.001534744657
0.001527069196
0.001518101912
0.001507880782
0.00150716639
0.001501201622
0.00149398773
0.00148555627
0.001475941755
0.001474315702
0.001468707363
0.001461921885
0.001453988053
0.001444937077
0.001442579713
0.001437305451
0.001430921826
0.001423454892
0.001414933092
0.001411876312
0.00140690899
0.001400895018
0.00139385823
0.001385824491
0.001382719961
0.001378039147
0.001372370676
0.001365736147
0.001358158922
0.001357676142
0.001353226093
0.001347836198
0.001341526328
0.00133431803
0.00760347969
0.0004900086741
3.929165251e-05
7.167143425e-06
2.322983592e-06
9.763472275e-07
4.67976421e-07
2.587746055e-07
1.718334857e-07
1.362079497e-07
1.21847559e-07
1.160771614e-07
1.137142998e-07
1.12714164e-07
1.123063866e-07
1.122295245e-07
1.120733166e-07
1.117858323e-07
1.116283952e-07
1.115376987e-07
1.11473173e-07
1.11418479e-07
1.113681837e-07
1.11321448e-07
1.11278244e-07
1.112384866e-07
1.112019918e-07
1.11168515e-07
1.1113739e-07
1.111083052e-07
1.110812902e-07
1.110563077e-07
1.110330662e-07
1.110114366e-07
1.109911687e-07
1.109725247e-07
1.109556368e-07
1.109399049e-07
1.109252328e-07
1.109116887e-07
1.108991116e-07
1.108872018e-07
1.108758783e-07
1.108647836e-07
1.108545339e-07
1.10845868e-07
1.108384345e-07
1.108318715e-07
1.108256512e-07
1.108202554e-07
1.10815284e-07
1.10811037e-07
1.108068997e-07
1.10802364e-07
1.107871236e-07
1.106881605e-07
1.10096723e-07
1.07452597e-07
9.849620674e-08
8.661977835e-08
0.01292707003
0.00136392186
0.0001136938955
1.706966243e-05
4.999191827e-06
2.149977525e-06
1.142806398e-06
7.098440283e-07
5.105639115e-07
4.179688617e-07
3.753352307e-07
3.558000137e-07
3.467858769e-07
3.425431605e-07
3.40563014e-07
3.398291095e-07
3.391826817e-07
3.383238649e-07
3.378438345e-07
3.37562289e-07
3.373638318e-07
3.371934114e-07
3.37039481e-07
3.369012548e-07
3.367769505e-07
3.366652893e-07
3.365639189e-07
3.364704777e-07
3.363842143e-07
3.363076959e-07
3.362415265e-07
3.361834509e-07
3.361297348e-07
3.360797878e-07
3.360345249e-07
3.359961938e-07
3.359660182e-07
3.359348875e-07
3.359038273e-07
3.358781612e-07
3.358583846e-07
3.358397347e-07
3.358218057e-07
3.358057117e-07
3.357893885e-07
3.357758539e-07
3.35765201e-07
3.357586529e-07
3.357493854e-07
3.3574601e-07
3.357414976e-07
3.35741511e-07
3.357387096e-07
3.357363213e-07
3.357081581e-07
3.35545919e-07
3.347812283e-07
3.322028496e-07
3.267872132e-07
3.226793457e-07
0.01567453353
0.002173609349
0.0001757725307
2.330110707e-05
6.410765573e-06
2.844334523e-06
1.650367075e-06
1.130157452e-06
8.711536013e-07
7.370374413e-07
6.672272402e-07
6.310419861e-07
6.123326519e-07
6.026129869e-07
5.975844729e-07
5.951955861e-07
5.93610256e-07
5.921403821e-07
5.913181207e-07
5.908291696e-07
5.904763578e-07
5.90168021e-07
5.898835356e-07
5.896257377e-07
5.893952056e-07
5.891876942e-07
5.890015596e-07
5.888364026e-07
5.886892948e-07
5.885575727e-07
5.884410419e-07
5.88339437e-07
5.882509038e-07
5.881775213e-07
5.881128937e-07
5.880586581e-07
5.880180445e-07
5.879780884e-07
5.8793923e-07
5.879070709e-07
5.8788363e-07
5.878627034e-07
5.878468667e-07
5.878394005e-07
5.878347375e-07
5.878325411e-07
5.878325389e-07
5.878390672e-07
5.878412846e-07
5.878542666e-07
5.878657213e-07
5.878852023e-07
5.878991014e-07
5.879214909e-07
5.8791901e-07
5.878656231e-07
5.876544041e-07
5.875531564e-07
5.898952206e-07
5.945293847e-07
0.02457169836
0.005641726023
0.0005277680637
4.063663874e-05
7.867163914e-06
3.249848638e-06
1.963605832e-06
1.423702681e-06
1.147132799e-06
9.938839564e-07
9.064275402e-07
8.562380459e-07
8.275746802e-07
8.113354039e-07
8.022805561e-07
7.974935589e-07
7.947004403e-07
7.928111191e-07
7.918446555e-07
7.913233582e-07
7.909678731e-07
7.906622275e-07
7.903793806e-07
7.901214444e-07
7.898921737e-07
7.896898482e-07
7.895105676e-07
7.893534274e-07
7.892158784e-07
7.89095798e-07
7.889919264e-07
7.889036146e-07
7.888298248e-07
7.887723169e-07
7.887254048e-07
7.886902123e-07
7.886689238e-07
7.88649306e-07
7.8863166e-07
7.886197552e-07
7.886146994e-07
7.886132847e-07
7.886174775e-07
7.886294236e-07
7.886461515e-07
7.886661972e-07
7.886875244e-07
7.887142868e-07
7.887378381e-07
7.887717096e-07
7.888052607e-07
7.888471979e-07
7.888817371e-07
7.889321846e-07
7.889795007e-07
7.89100328e-07
7.895114315e-07
7.913495193e-07
7.974083554e-07
8.046158516e-07
0.03613736105
0.01193016142
0.002099693888
0.0001733645076
1.823454893e-05
4.80557736e-06
2.438100121e-06
1.683830971e-06
1.345031848e-06
1.165384471e-06
1.062085934e-06
1.00047412e-06
9.634175817e-07
9.411588984e-07
9.2803321e-07
9.206411315e-07
9.165407574e-07
9.143010082e-07
9.1329534e-07
9.128659161e-07
9.126445946e-07
9.124791733e-07
9.123305449e-07
9.121968606e-07
9.120813875e-07
9.119834802e-07
9.119004612e-07
9.118312536e-07
9.117741965e-07
9.117281467e-07
9.116924156e-07
9.116659786e-07
9.116486759e-07
9.116417495e-07
9.116417233e-07
9.116491908e-07
9.116646772e-07
9.116812626e-07
9.116987945e-07
9.117196721e-07
9.117442882e-07
9.117704748e-07
9.117998869e-07
9.118334857e-07
9.118699843e-07
9.119089851e-07
9.119490298e-07
9.119913629e-07
9.120319237e-07
9.120789727e-07
9.121264175e-07
9.121797133e-07
9.122285849e-07
9.122932036e-07
9.123750754e-07
9.125868305e-07
9.132293155e-07
9.153663299e-07
9.207087939e-07
9.261518579e-07
0.04887346392
0.02207368015
0.006565844675
0.001030408643
8.85339902e-05
1.232983334e-05
3.909931308e-06
2.140734711e-06
1.548682594e-06
1.289212503e-06
1.156208375e-06
1.081164524e-06
1.036384497e-06
1.008986301e-06
9.922602122e-07
9.82395138e-07
9.768715349e-07
9.740481433e-07
9.728293177e-07
9.723977298e-07
9.722754487e-07
9.722469688e-07
9.722423001e-07
9.722473583e-07
9.722610443e-07
9.722804958e-07
9.723044958e-07
9.723323828e-07
9.723630699e-07
9.723962224e-07
9.724319487e-07
9.724696962e-07
9.725096511e-07
9.725525732e-07
9.725970725e-07
9.726434911e-07
9.726918926e-07
9.727397314e-07
9.727870836e-07
9.72835066e-07
9.728838283e-07
9.729320086e-07
9.729806493e-07
9.730298667e-07
9.730790035e-07
9.731287439e-07
9.731788485e-07
9.732294465e-07
9.73278399e-07
9.733293446e-07
9.733797567e-07
9.734332723e-07
9.734850927e-07
9.735493845e-07
9.736387545e-07
9.738454328e-07
9.743991981e-07
9.759411488e-07
9.791664777e-07
9.821354149e-07
0.06056336269
0.03285933137
0.0139774011
0.003939623429
0.0005360367824
4.848002074e-05
8.567137628e-06
3.195457573e-06
1.893033808e-06
1.433482537e-06
1.233201516e-06
1.132603067e-06
1.076573056e-06
1.043204272e-06
1.022744854e-06
1.010296196e-06
1.003092206e-06
9.993035515e-07
9.975494878e-07
9.968842012e-07
9.96712508e-07
9.967281832e-07
9.968064087e-07
9.969052347e-07
9.97010826e-07
9.971165181e-07
9.972194287e-07
9.973179956e-07
9.974119125e-07
9.975016173e-07
9.975874048e-07
9.976696356e-07
9.977489093e-07
9.978257195e-07
9.978999698e-07
9.979720654e-07
9.980421771e-07
9.981098155e-07
9.981752028e-07
9.982388462e-07
9.983009311e-07
9.983609653e-07
9.984195367e-07
9.984766393e-07
9.985320103e-07
9.985861578e-07
9.986391604e-07
9.986914138e-07
9.987420768e-07
9.98792251e-07
9.988411282e-07
9.98890964e-07
9.98940554e-07
9.989996893e-07
9.990828391e-07
9.992509545e-07
9.996383084e-07
1.000540654e-06
1.00215168e-06
1.003508951e-06
0.0712390585
0.04330177797
0.02288786425
0.009525365812
0.002363213058
0.0002478333555
2.579365673e-05
5.937754443e-06
2.597397523e-06
1.674134595e-06
1.333093083e-06
1.182847004e-06
1.107120014e-06
1.064694674e-06
1.039300775e-06
1.023770181e-06
1.0145624e-06
1.009486785e-06
1.006908844e-06
1.005769435e-06
1.005370541e-06
1.005309304e-06
1.005388395e-06
1.005522563e-06
1.0056756e-06
1.005830945e-06
1.00598103e-06
1.006122619e-06
1.006255003e-06
1.00637866e-06
1.006494287e-06
1.006602762e-06
1.006704944e-06
1.006801519e-06
1.006892998e-06
1.006979905e-06
1.007062655e-06
1.00714146e-06
1.007216656e-06
1.007288616e-06
1.007357609e-06
1.007423628e-06
1.007487022e-06
1.007547957e-06
1.007606486e-06
1.007662849e-06
1.007717069e-06
1.007769509e-06
1.007820075e-06
1.007869187e-06
1.007916785e-06
1.00796426e-06
1.008012392e-06
1.008068668e-06
1.008146507e-06
1.008285296e-06
1.008555775e-06
1.009075463e-06
1.009866166e-06
1.010466351e-06
0.08103544337
0.0529145458
0.03132465174
0.01650529984
0.006641165378
0.00120594199
0.0001009492793
1.388605683e-05
4.165851611e-06
2.122830337e-06
1.492188567e-06
1.250297454e-06
1.141437989e-06
1.085084061e-06
1.05269349e-06
1.033070628e-06
1.021273682e-06
1.014519191e-06
1.010845082e-06
1.009022975e-06
1.008235185e-06
1.00798005e-06
1.007980883e-06
1.008097826e-06
1.008262426e-06
1.008440982e-06
1.008617331e-06
1.00878451e-06
1.008940319e-06
1.009084753e-06
1.009218594e-06
1.009342986e-06
1.009458963e-06
1.009567475e-06
1.009669325e-06
1.009765198e-06
1.009855689e-06
1.009941252e-06
1.010022337e-06
1.010099328e-06
1.010172573e-06
1.010242282e-06
1.01030876e-06
1.010372229e-06
1.010432872e-06
1.010490896e-06
1.010546403e-06
1.010599625e-06
1.010650675e-06
1.010699837e-06
1.010747417e-06
1.010794593e-06
1.010843332e-06
1.010900306e-06
1.010978538e-06
1.011105936e-06
1.011322512e-06
1.011674696e-06
1.012136916e-06
1.012440978e-06
0.08994478944
0.0623094472
0.0395870206
0.02309052365
0.01164841034
0.003703137304
0.0004228186469
3.694123352e-05
7.41576559e-06
2.887517951e-06
1.732969244e-06
1.344071051e-06
1.186042166e-06
1.110041121e-06
1.06806091e-06
1.042917163e-06
1.027650813e-06
1.018653286e-06
1.013518015e-06
1.010767155e-06
1.009418063e-06
1.008848801e-06
1.008691659e-06
1.008741531e-06
1.008887499e-06
1.009070684e-06
1.009261193e-06
1.009445257e-06
1.009617638e-06
1.009777176e-06
1.009924391e-06
1.010060443e-06
1.010186544e-06
1.010303841e-06
1.01041332e-06
1.010515837e-06
1.010612109e-06
1.010702745e-06
1.010788273e-06
1.010869148e-06
1.010945772e-06
1.011018469e-06
1.011087559e-06
1.011153303e-06
1.011215933e-06
1.011275663e-06
1.011332667e-06
1.011387153e-06
1.011439309e-06
1.011489418e-06
1.011537985e-06
1.011586312e-06
1.011637195e-06
1.01169755e-06
1.011780612e-06
1.011908971e-06
1.012109754e-06
1.012403199e-06
1.012749416e-06
1.012941211e-06
0.09752548899
0.07163306861
0.0482934637
0.0301684411
0.01690969542
0.007048975787
0.001257108947
0.0001053559056
1.428941933e-05
4.130944106e-06
2.066576823e-06
1.4644479e-06
1.242173566e-06
1.141547757e-06
1.087527626e-06
1.055336696e-06
1.035560157e-06
1.023607074e-06
1.016528157e-06
1.012524801e-06
1.010396655e-06
1.009367287e-06
1.008957055e-06
1.008881246e-06
1.008974821e-06
1.009144312e-06
1.009339356e-06
1.009535145e-06
1.009721079e-06
1.009893711e-06
1.010052779e-06
1.010199251e-06
1.01033443e-06
1.010459609e-06
1.010575942e-06
1.010684431e-06
1.010785925e-06
1.010881148e-06
1.010970719e-06
1.011055166e-06
1.011134952e-06
1.011210468e-06
1.011282067e-06
1.011350052e-06
1.011414686e-06
1.011476215e-06
1.011534849e-06
1.011590811e-06
1.011644343e-06
1.011695802e-06
1.011745871e-06
1.011796152e-06
1.011850154e-06
1.011915454e-06
1.012005603e-06
1.012140623e-06
1.012341479e-06
1.012617023e-06
1.012919848e-06
1.013059164e-06
0.1039576518
0.08014188587
0.05687547512
0.03730782429
0.02204814222
0.01045689451
0.00274766529
0.0002772645604
2.967809591e-05
6.186876317e-06
2.509954678e-06
1.609944991e-06
1.309326061e-06
1.179950051e-06
1.111729389e-06
1.07104684e-06
1.045733208e-06
1.030073832e-06
1.020504979e-06
1.014865187e-06
1.01169274e-06
1.010023274e-06
1.009241041e-06
1.008964276e-06
1.008960821e-06
1.009092233e-06
1.00927962e-06
1.009481531e-06
1.009678631e-06
1.009863392e-06
1.010033906e-06
1.010190613e-06
1.010334754e-06
1.010467722e-06
1.010590823e-06
1.010705202e-06
1.010811844e-06
1.010911582e-06
1.011005131e-06
1.011093098e-06
1.01117601e-06
1.011254314e-06
1.011328403e-06
1.011398621e-06
1.011465268e-06
1.011528621e-06
1.011588923e-06
1.011646427e-06
1.011701433e-06
1.011754405e-06
1.011806243e-06
1.011858942e-06
1.011916697e-06
1.011987776e-06
1.012085856e-06
1.012229183e-06
1.012434607e-06
1.012703996e-06
1.012984298e-06
1.013087717e-06
0.1090572445
0.0875632416
0.06477929377
0.04431484342
0.0270486959
0.01367127254
0.004409329466
0.0006447423589
5.925182952e-05
9.542269215e-06
3.08008168e-06
1.775991415e-06
1.385612817e-06
1.224572007e-06
1.140376112e-06
1.089962069e-06
1.058220941e-06
1.03819979e-06
1.025645174e-06
1.01799007e-06
1.013497649e-06
1.010992138e-06
1.00970264e-06
1.009134925e-06
1.008977678e-06
1.009037764e-06
1.009199735e-06
1.009399228e-06
1.009603845e-06
1.009799403e-06
1.009981005e-06
1.010147944e-06
1.010301144e-06
1.01044201e-06
1.010571969e-06
1.010692309e-06
1.010804146e-06
1.010908432e-06
1.011005978e-06
1.011097473e-06
1.011183509e-06
1.011264593e-06
1.011341163e-06
1.011413604e-06
1.011482254e-06
1.011547423e-06
1.011609388e-06
1.011668443e-06
1.011724959e-06
1.01177954e-06
1.01183335e-06
1.011888817e-06
1.01195078e-06
1.012028075e-06
1.01213421e-06
1.012285737e-06
1.012495979e-06
1.012761326e-06
1.013024314e-06
1.013095348e-06
0.1130468881
0.09405688791
0.07199266573
0.05092743732
0.0317725265
0.01650144743
0.006008525452
0.00120759208
0.0001102570344
1.501642253e-05
3.900211136e-06
1.993551565e-06
1.479893922e-06
1.277787426e-06
1.17394674e-06
1.112049977e-06
1.072907521e-06
1.047903052e-06
1.031917259e-06
1.021916907e-06
1.015855787e-06
1.012330828e-06
1.010400988e-06
1.009448718e-06
1.009074317e-06
1.009022592e-06
1.009135283e-06
1.009319598e-06
1.009525615e-06
1.009729388e-06
1.009921168e-06
1.010098128e-06
1.010260427e-06
1.010409295e-06
1.010546211e-06
1.01067259e-06
1.010789679e-06
1.010898549e-06
1.011000112e-06
1.011095141e-06
1.011184298e-06
1.01126815e-06
1.011347186e-06
1.011421834e-06
1.01149247e-06
1.011559436e-06
1.011623049e-06
1.011683657e-06
1.011741719e-06
1.011798014e-06
1.011854005e-06
1.011912563e-06
1.011979101e-06
1.012062833e-06
1.012176831e-06
1.012335872e-06
1.012549989e-06
1.012810935e-06
1.013057795e-06
1.013096846e-06
0.1161378376
0.09964631899
0.07840223852
0.05674107133
0.03556375359
0.01823747013
0.006985475811
0.001817846412
0.0002079110542
2.670613611e-05
5.363900988e-06
2.309843082e-06
1.60209768e-06
1.342690752e-06
1.213462333e-06
1.137557815e-06
1.089771408e-06
1.059079505e-06
1.039226173e-06
1.026581482e-06
1.018739246e-06
1.014035923e-06
1.011348836e-06
1.009926816e-06
1.009273946e-06
1.009067725e-06
1.009103178e-06
1.009255492e-06
1.009453728e-06
1.009661201e-06
1.009861177e-06
1.010047409e-06
1.010218589e-06
1.01037544e-06
1.010519355e-06
1.010651818e-06
1.010774191e-06
1.010887663e-06
1.010993245e-06
1.011091802e-06
1.011184065e-06
1.011270666e-06
1.011352146e-06
1.011428976e-06
1.011501572e-06
1.011570312e-06
1.011635561e-06
1.011697734e-06
1.011757401e-06
1.011815544e-06
1.011873946e-06
1.01193591e-06
1.012007327e-06
1.01209758e-06
1.012219094e-06
1.012384795e-06
1.012601624e-06
1.012857416e-06
1.013088633e-06
1.013096845e-06
0.1183634414
0.1041679241
0.08336183453
0.06064874984
0.03700199047
0.01797347149
0.006894828681
0.002123202042
0.0003547487168
5.042244649e-05
8.29379756e-06
2.842067914e-06
1.77755562e-06
1.427230782e-06
1.262073286e-06
1.16791183e-06
1.109492638e-06
1.072042519e-06
1.047697853e-06
1.032039437e-06
1.022159883e-06
1.016108495e-06
1.0125499e-06
1.010578338e-06
1.009589571e-06
1.009187098e-06
1.00911572e-06
1.009216311e-06
1.009394686e-06
1.009599114e-06
1.009803852e-06
1.009997762e-06
1.010177153e-06
1.010341741e-06
1.010492578e-06
1.010631108e-06
1.010758763e-06
1.01087683e-06
1.010986421e-06
1.011088485e-06
1.011183832e-06
1.011273155e-06
1.011357051e-06
1.011436035e-06
1.011510564e-06
1.011581058e-06
1.01164794e-06
1.011711705e-06
1.011773061e-06
1.011833213e-06
1.011894272e-06
1.011959944e-06
1.012036487e-06
1.012133265e-06
1.01226188e-06
1.012433374e-06
1.012651802e-06
1.012901739e-06
1.013117776e-06
1.013097082e-06
0.1191185042
0.105983581
0.08475029403
0.06034665194
0.03397494917