/*--------------------------------*- C++ -*----------------------------------*\
  =========                 |
  \\      /  F ield         | OpenFOAM: The Open Source CFD Toolbox
   \\    /   O peration     | Website:  https://openfoam.org
    \\  /    A nd           | Version:  10
     \\/     M anipulation  |
\*---------------------------------------------------------------------------*/
FoamFile
{
    format      ascii;
    class       volScalarField;
    location    "0.0250188088";
    object      H2O2;
}
// * * * * * * * * * * * * * * * * * * * * * * * * * * * * * * * * * * * * * //

dimensions      [0 0 0 0 0 0 0];

internalField   nonuniform List<scalar> 
5170
(
1.996032797e-10
1.992702709e-10
1.970361171e-10
1.811566817e-10
1.363644373e-11
3.950188492e-10
3.939798381e-10
3.89226974e-10
3.649532131e-10
2.269347244e-10
5.889466684e-10
5.87213845e-10
5.80271622e-10
5.51246383e-10
4.370896851e-10
7.808359617e-10
7.784897813e-10
7.699233446e-10
7.390325937e-10
6.480892704e-10
9.704104694e-10
9.675568329e-10
9.579806811e-10
9.275450262e-10
8.596216438e-10
1.157634538e-09
1.154470409e-09
1.144529438e-09
1.116593247e-09
1.071499098e-09
1.342705802e-09
1.339389805e-09
1.329707214e-09
1.306311253e-09
1.283784805e-09
1.525986235e-09
1.522734476e-09
1.51387904e-09
1.496749112e-09
1.496633457e-09
1.70774724e-09
1.704760206e-09
1.697372384e-09
1.688082401e-09
1.710185347e-09
1.888278429e-09
1.885691802e-09
1.880221081e-09
1.880528621e-09
1.924589456e-09
2.067748679e-09
2.065693924e-09
2.062485187e-09
2.074181473e-09
2.139838015e-09
2.246176088e-09
2.244831306e-09
2.244626204e-09
2.268971911e-09
2.355701636e-09
2.423610996e-09
2.423164879e-09
2.426878881e-09
2.46489882e-09
2.571957975e-09
2.600133152e-09
2.600773857e-09
2.609219391e-09
2.661956096e-09
2.788404522e-09
2.77578575e-09
2.777733878e-09
2.791653074e-09
2.860038135e-09
3.004782461e-09
2.950552051e-09
2.954058252e-09
2.974453465e-09
3.059165786e-09
3.220553865e-09
3.124446344e-09
3.129796906e-09
3.157433886e-09
3.258930443e-09
3.435874711e-09
3.297498702e-09
3.305033642e-09
3.341135139e-09
3.459547865e-09
3.650001558e-09
3.469742896e-09
3.479878657e-09
3.525862177e-09
3.661809988e-09
3.865613568e-09
3.642815516e-09
3.662676003e-09
3.760606271e-09
4.152735787e-09
5.25114669e-09
1.505428295e-07
1.505155298e-07
1.505157189e-07
1.505376929e-07
1.505273256e-07
1.274681791e-07
1.313361412e-07
1.314240396e-07
1.30419653e-07
1.245351483e-07
1.037464566e-07
1.097184547e-07
1.098556437e-07
1.074655744e-07
9.936189586e-08
8.870886809e-08
9.478737687e-08
9.50620877e-08
9.175417714e-08
8.438251616e-08
7.898413038e-08
8.460253497e-08
8.48273924e-08
8.151586855e-08
7.457792591e-08
7.334908124e-08
7.775642064e-08
7.823017169e-08
7.483234064e-08
6.926272092e-08
6.856882311e-08
7.316006002e-08
7.35323912e-08
7.082603242e-08
6.696375943e-08
6.676801115e-08
6.925112751e-08
6.966090962e-08
6.825284003e-08
6.543799624e-08
6.554889609e-08
6.723691519e-08
6.753763325e-08
6.6341617e-08
6.390440149e-08
6.424113343e-08
6.591032937e-08
6.610958184e-08
6.501026019e-08
6.338053839e-08
6.354724469e-08
6.483970294e-08
6.498399011e-08
6.379692249e-08
6.290093729e-08
6.297107786e-08
6.373277536e-08
6.38144977e-08
6.329122728e-08
6.248487701e-08
6.255085422e-08
6.322277798e-08
6.329039078e-08
6.277607035e-08
6.216943839e-08
6.222973701e-08
6.274904545e-08
6.27859246e-08
6.236583086e-08
6.187085199e-08
6.195529964e-08
6.237113419e-08
6.239307913e-08
6.203588687e-08
6.157241843e-08
6.172233947e-08
6.207366854e-08
6.208171661e-08
6.173220242e-08
6.12407107e-08
6.142802154e-08
6.180026017e-08
6.179735893e-08
6.143481589e-08
6.091181101e-08
6.114265336e-08
6.153181879e-08
6.15098975e-08
6.110679499e-08
6.055948339e-08
6.138856085e-08
6.13464441e-08
6.120438641e-08
6.077576198e-08
6.022469144e-08
1.190828916e-07
7.199712273e-08
6.25664595e-08
6.083989471e-08
6.000357921e-08
3.845449333e-09
4.147963315e-09
8.94885822e-09
7.96175961e-08
6.96337582e-07
4.23187898e-09
5.818107285e-09
2.720097438e-08
2.603931361e-07
1.466130782e-06
5.155985615e-09
1.069934927e-08
7.334690359e-08
5.459828427e-07
2.035446113e-06
7.259607299e-09
2.138175084e-08
1.581263149e-07
8.923616028e-07
2.387225891e-06
1.169185694e-08
4.213176348e-08
2.865914033e-07
1.237640048e-06
2.549978711e-06
2.038143578e-08
7.92711995e-08
4.680365053e-07
1.527700887e-06
2.61391243e-06
3.612497002e-08
1.386050162e-07
6.811480467e-07
1.752054889e-06
2.660212623e-06
6.340858133e-08
2.289964671e-07
9.071700087e-07
1.923130207e-06
2.702870511e-06
1.085089558e-07
3.594913003e-07
1.128241046e-06
2.050572488e-06
2.725047204e-06
1.802554348e-07
5.294317871e-07
1.330756631e-06
2.143791093e-06
2.724248703e-06
2.875955827e-07
7.260485541e-07
1.507743554e-06
2.211608035e-06
2.708155993e-06
4.652955026e-07
9.467323917e-07
1.659061162e-06
2.26308695e-06
2.686324725e-06
7.14383046e-07
1.173565623e-06
1.790495889e-06
2.301816257e-06
2.657475267e-06
9.927801608e-07
1.394455329e-06
1.908102365e-06
2.331467999e-06
2.621305375e-06
1.296851292e-06
1.609448453e-06
2.016142268e-06
2.355527985e-06
2.583948769e-06
1.588741352e-06
1.813455301e-06
2.12066358e-06
2.383541366e-06
2.558321314e-06
1.853538055e-06
2.006379418e-06
2.227480414e-06
2.422886985e-06
2.551068969e-06
2.100104147e-06
2.199282221e-06
2.353864671e-06
2.49864119e-06
2.595432348e-06
2.378118078e-06
2.452053614e-06
2.580570943e-06
2.716631767e-06
2.817786607e-06
2.977155651e-06
3.080043239e-06
3.282537141e-06
3.536219269e-06
3.776058841e-06
4.823847655e-06
5.081915111e-06
5.637946715e-06
6.455622981e-06
7.496326586e-06
9.152507156e-06
9.568369672e-06
1.048682171e-05
1.188076457e-05
1.374089847e-05
1.469261028e-05
1.509783724e-05
1.599316147e-05
1.73377212e-05
1.909566583e-05
1.881985506e-05
1.909379316e-05
1.969329855e-05
2.057358776e-05
2.168462112e-05
2.047794468e-05
2.061230717e-05
2.089737156e-05
2.129843647e-05
2.177560939e-05
2.014308733e-05
2.01816621e-05
2.025642831e-05
2.035043855e-05
2.044515464e-05
1.89507795e-05
1.894509684e-05
1.892524817e-05
1.888420784e-05
1.881441972e-05
1.762307039e-05
1.760097051e-05
1.754746354e-05
1.746100767e-05
1.73399114e-05
1.655029012e-05
1.652512786e-05
1.646697071e-05
1.637697334e-05
1.625579748e-05
1.589358492e-05
1.587030079e-05
1.581804646e-05
1.573929328e-05
1.563492145e-05
1.568438665e-05
1.56641087e-05
1.561941268e-05
1.555200882e-05
1.54629594e-05
1.585930269e-05
1.584104623e-05
1.580158756e-05
1.574250286e-05
1.566429418e-05
1.632007203e-05
1.630216761e-05
1.626398e-05
1.620708256e-05
1.613168587e-05
1.692303342e-05
1.690432981e-05
1.686465078e-05
1.680566095e-05
1.672743303e-05
1.752207032e-05
1.750224465e-05
1.746013044e-05
1.739740844e-05
1.73142311e-05
1.799925092e-05
1.797832041e-05
1.793363792e-05
1.786700195e-05
1.777864617e-05
1.827797483e-05
1.825661585e-05
1.821075682e-05
1.814218833e-05
1.805127114e-05
1.833810486e-05
1.831698647e-05
1.827137057e-05
1.820294193e-05
1.811213581e-05
1.819527476e-05
1.817504516e-05
1.8131122e-05
1.806506138e-05
1.797734493e-05
1.789509491e-05
1.787622256e-05
1.783507285e-05
1.777305669e-05
1.769067625e-05
1.749062012e-05
1.747335674e-05
1.743557759e-05
1.737852156e-05
1.730266554e-05
1.703256533e-05
1.701692551e-05
1.69826069e-05
1.693069162e-05
1.686161464e-05
1.655950203e-05
1.65453681e-05
1.65144367e-05
1.646761589e-05
1.640529744e-05
1.610100428e-05
1.608837868e-05
1.606060098e-05
1.601850651e-05
1.596243145e-05
1.567281796e-05
1.566144268e-05
1.563640139e-05
1.559843599e-05
1.554784393e-05
1.528088334e-05
1.527059318e-05
1.524794195e-05
1.521359087e-05
1.516777414e-05
1.492561013e-05
1.491623944e-05
1.489561659e-05
1.486433661e-05
1.4822605e-05
1.460104625e-05
1.459248054e-05
1.457363641e-05
1.454505615e-05
1.450691898e-05
1.430561678e-05
1.42977525e-05
1.428045707e-05
1.425422541e-05
1.421921079e-05
1.403411032e-05
1.402684286e-05
1.401086338e-05
1.398661914e-05
1.395426135e-05
1.378103129e-05
1.377429521e-05
1.375948983e-05
1.373703529e-05
1.370705546e-05
1.354378753e-05
1.353755131e-05
1.352384467e-05
1.350305481e-05
1.347528606e-05
1.331972941e-05
1.331392608e-05
1.330116975e-05
1.328181586e-05
1.325595333e-05
1.310535929e-05
1.309992587e-05
1.30879729e-05
1.306985028e-05
1.304562573e-05
1.289762069e-05
1.289254101e-05
1.288137165e-05
1.286441661e-05
1.284174467e-05
1.269579949e-05
1.269103335e-05
1.268055091e-05
1.266462438e-05
1.264334153e-05
1.249881585e-05
1.24943425e-05
1.248450433e-05
1.246956764e-05
1.244959227e-05
1.230674231e-05
1.230252823e-05
1.229325797e-05
1.227918012e-05
1.226034847e-05
1.211864742e-05
1.211466042e-05
1.210588779e-05
1.209256276e-05
1.207473441e-05
1.193385746e-05
1.193006862e-05
1.192173028e-05
1.190906229e-05
1.189210888e-05
1.175173836e-05
1.174811597e-05
1.174014139e-05
1.172802066e-05
1.17117949e-05
1.157085747e-05
1.156736881e-05
1.155968716e-05
1.154800999e-05
1.153237471e-05
1.138898979e-05
1.138564648e-05
1.137828354e-05
1.136708637e-05
1.135208036e-05
1.120549005e-05
1.120232845e-05
1.119536671e-05
1.118478852e-05
1.117063497e-05
1.10229549e-05
1.101998201e-05
1.101343248e-05
1.100347677e-05
1.099015226e-05
1.084078867e-05
1.083799668e-05
1.083184114e-05
1.082247674e-05
1.080992382e-05
1.065910443e-05
1.065648299e-05
1.065070179e-05
1.064190744e-05
1.063013318e-05
1.047894754e-05
1.04765025e-05
1.047110587e-05
1.046289022e-05
1.045188169e-05
1.030569128e-05
1.030339703e-05
1.029833093e-05
1.029061458e-05
1.028026881e-05
1.01553737e-05
1.015319673e-05
1.014838793e-05
1.014105994e-05
1.01312152e-05
7.781595168e-07
1.884894447e-06
2.512061028e-06
2.813806888e-06
2.889787504e-06
2.894474458e-06
2.93018577e-06
2.966452991e-06
2.960964334e-06
2.930704675e-06
2.881150084e-06
2.831760615e-06
2.776059594e-06
2.708001875e-06
2.642944961e-06
2.596032301e-06
2.570255116e-06
2.598835095e-06
2.818337272e-06
3.842716358e-06
8.252955984e-06
1.523750528e-05
2.048017769e-05
2.25246794e-05
2.212207403e-05
2.050635953e-05
1.875707598e-05
1.724599953e-05
1.616203541e-05
1.555234805e-05
1.53907721e-05
1.559836141e-05
1.606637813e-05
1.665902454e-05
1.724182934e-05
1.77025621e-05
1.797391315e-05
1.803573463e-05
1.790433915e-05
1.76226106e-05
1.724033763e-05
1.680508049e-05
1.635440954e-05
1.591667087e-05
1.550654604e-05
1.513033849e-05
1.47884449e-05
1.447566001e-05
1.419047028e-05
1.392766231e-05
1.368241516e-05
1.345242993e-05
1.32346486e-05
1.30256604e-05
1.282305513e-05
1.262579442e-05
1.243312927e-05
1.224482802e-05
1.20600419e-05
1.187813647e-05
1.16984224e-05
1.151949049e-05
1.133976441e-05
1.115899242e-05
1.097919722e-05
1.079962325e-05
1.062046931e-05
1.0442845e-05
1.027177461e-05
1.01231587e-05
1.409153546e-06
2.643652769e-07
1.669734569e-07
1.144539838e-07
3.181493539e-07
2.475528871e-06
9.703030076e-07
2.793791418e-07
3.032480835e-07
1.012567546e-06
3.031993615e-06
1.045360611e-06
2.820687325e-07
4.838271922e-07
2.045214964e-06
3.220464087e-06
1.369720862e-06
3.135728262e-07
4.956476835e-07
1.595814391e-06
3.174305609e-06
1.532370533e-06
6.085903202e-07
4.619354215e-07
1.254045541e-06
3.129789609e-06
1.877682902e-06
7.823490744e-07
3.915797932e-07
8.125905388e-07
3.201503107e-06
2.408202993e-06
9.193192067e-07
3.309990715e-07
5.690590951e-07
3.254495215e-06
2.613066339e-06
9.333465814e-07
2.750816098e-07
4.394337409e-07
3.215002373e-06
2.62000424e-06
1.00307161e-06
3.810005362e-07
3.667858903e-07
3.152733471e-06
2.574661239e-06
9.814507632e-07
4.604553975e-07
3.128220861e-07
3.057404564e-06
2.534394134e-06
1.015860229e-06
4.935914176e-07
2.616012852e-07
2.976046673e-06
2.481961965e-06
1.081666489e-06
5.300791478e-07
2.120863992e-07
2.887944643e-06
2.36955099e-06
1.077424457e-06
5.699600661e-07
2.241937452e-07
2.774168643e-06
2.254376918e-06
1.074439756e-06
5.897645269e-07
2.705083331e-07
2.675109013e-06
2.171044916e-06
1.083967381e-06
6.062742106e-07
3.037645179e-07
2.601610542e-06
2.111179133e-06
1.098613096e-06
6.227419561e-07
3.326309674e-07
2.552029302e-06
2.070765082e-06
1.117237152e-06
6.440780041e-07
3.617960073e-07
2.556530556e-06
2.029819775e-06
1.12252616e-06
6.665243416e-07
4.013547127e-07
2.745411564e-06
2.088234742e-06
1.159347111e-06
7.203895909e-07
4.486286356e-07
3.783348899e-06
3.095982303e-06
2.134617028e-06
1.627079079e-06
1.425284912e-06
9.156040383e-06
1.092233507e-05
1.363776851e-05
1.931291249e-05
3.082163513e-05
1.734576368e-05
2.191439352e-05
2.81880251e-05
3.631715864e-05
4.521803225e-05
2.249658593e-05
2.629532006e-05
3.043734839e-05
3.426555109e-05
3.686611841e-05
2.378459193e-05
2.576510637e-05
2.744536941e-05
2.84558883e-05
2.847163534e-05
2.268413693e-05
2.336550548e-05
2.366969835e-05
2.346151009e-05
2.267193751e-05
2.065646935e-05
2.066335223e-05
2.037686093e-05
1.977607087e-05
1.88775552e-05
1.872520044e-05
1.848587649e-05
1.804296432e-05
1.741270647e-05
1.662728641e-05
1.714604585e-05
1.685018867e-05
1.641755824e-05
1.58759241e-05
1.524889597e-05
1.604705028e-05
1.576797884e-05
1.540204167e-05
1.496911634e-05
1.449038467e-05
1.543979446e-05
1.520175887e-05
1.490614919e-05
1.456377029e-05
1.419253502e-05
1.528142244e-05
1.507265547e-05
1.482892272e-05
1.455252424e-05
1.425296837e-05
1.548849976e-05
1.529394233e-05
1.507821146e-05
1.483909597e-05
1.457807645e-05
1.595103966e-05
1.575650884e-05
1.554527633e-05
1.531602177e-05
1.506608964e-05
1.653602418e-05
1.633244792e-05
1.611389801e-05
1.587571072e-05
1.561439708e-05
1.711297049e-05
1.68964852e-05
1.666233684e-05
1.640599192e-05
1.612611941e-05
1.757049436e-05
1.734369413e-05
1.709565815e-05
1.682278674e-05
1.652320647e-05
1.784349607e-05
1.761393227e-05
1.735779801e-05
1.707315936e-05
1.675984185e-05
1.791072463e-05
1.768473243e-05
1.742836947e-05
1.714175318e-05
1.682540963e-05
1.778808109e-05
1.757273528e-05
1.732462773e-05
1.704463108e-05
1.673422131e-05
1.751669483e-05
1.731624906e-05
1.708188689e-05
1.681526177e-05
1.651832726e-05
1.714511662e-05
1.696145242e-05
1.674410948e-05
1.649507543e-05
1.621694963e-05
1.67198437e-05
1.655306212e-05
1.635423114e-05
1.61254799e-05
1.586914204e-05
1.627833493e-05
1.612823172e-05
1.594807314e-05
1.573985553e-05
1.550576855e-05
1.584850137e-05
1.571328801e-05
1.555031446e-05
1.536143548e-05
1.514853249e-05
1.544506166e-05
1.532281827e-05
1.517522701e-05
1.500386878e-05
1.48103272e-05
1.507451653e-05
1.496356371e-05
1.48294586e-05
1.467349603e-05
1.449693563e-05
1.473733827e-05
1.463580336e-05
1.451299891e-05
1.437046277e-05
1.420923648e-05
1.442875171e-05
1.433580923e-05
1.42236376e-05
1.409312914e-05
1.394520729e-05
1.41472156e-05
1.406164207e-05
1.395836822e-05
1.383806835e-05
1.370152561e-05
1.388753688e-05
1.380824353e-05
1.371264861e-05
1.360131808e-05
1.347495303e-05
1.364517012e-05
1.357171271e-05
1.348315852e-05
1.337999037e-05
1.326275541e-05
1.341783495e-05
1.334959637e-05
1.32672876e-05
1.317128371e-05
1.306200057e-05
1.32023743e-05
1.313867899e-05
1.306178043e-05
1.297196106e-05
1.286959143e-05
1.299540182e-05
1.293563757e-05
1.28635754e-05
1.277943284e-05
1.268349822e-05
1.279473853e-05
1.27387821e-05
1.267116413e-05
1.259214244e-05
1.250200488e-05
1.259921333e-05
1.254666106e-05
1.24831664e-05
1.240893603e-05
1.232418665e-05
1.240821803e-05
1.235888991e-05
1.229916567e-05
1.22292218e-05
1.214925491e-05
1.222136266e-05
1.217482715e-05
1.211840983e-05
1.205226189e-05
1.197655258e-05
1.20378478e-05
1.199377007e-05
1.194027096e-05
1.187748116e-05
1.180553905e-05
1.185704631e-05
1.18150976e-05
1.176411563e-05
1.170419797e-05
1.16354573e-05
1.1678249e-05
1.163807667e-05
1.158919459e-05
1.153170617e-05
1.146574883e-05
1.150007009e-05
1.146139529e-05
1.141439008e-05
1.135914894e-05
1.129582829e-05
1.13211971e-05
1.128412468e-05
1.123909859e-05
1.118640661e-05
1.112615883e-05
1.114150463e-05
1.110660414e-05
1.106414288e-05
1.101426818e-05
1.095712123e-05
1.096278409e-05
1.092992446e-05
1.088984772e-05
1.084267725e-05
1.078851738e-05
1.078422918e-05
1.075330262e-05
1.071548249e-05
1.067086283e-05
1.061961808e-05
1.060606471e-05
1.057703314e-05
1.054145684e-05
1.049948351e-05
1.045120324e-05
1.0429415e-05
1.040223299e-05
1.036886748e-05
1.032940928e-05
1.028393521e-05
1.025917136e-05
1.023359956e-05
1.020213254e-05
1.016489403e-05
1.01219532e-05
1.011121745e-05
1.008693825e-05
1.005709177e-05
1.002180133e-05
9.981173206e-06
3.738371595e-06
3.911232864e-07
8.090150526e-08
3.904300842e-08
3.098941802e-08
2.868719428e-08
2.788997029e-08
2.761534992e-08
2.752930068e-08
2.749972923e-08
2.74771872e-08
2.744535238e-08
2.740894075e-08
2.737835562e-08
2.73664788e-08
2.738955386e-08
2.7363864e-08
2.728891827e-08
2.724736675e-08
2.722316714e-08
2.720571425e-08
2.71907488e-08
2.717689393e-08
2.716397474e-08
2.715200979e-08
2.714098578e-08
2.713085624e-08
2.712155616e-08
2.711290536e-08
2.710481864e-08
2.709730218e-08
2.709034479e-08
2.7083868e-08
2.707783686e-08
2.707218273e-08
2.706697599e-08
2.706225196e-08
2.705784632e-08
2.705373325e-08
2.70499317e-08
2.704639753e-08
2.704304849e-08
2.703986221e-08
2.703674134e-08
2.703385389e-08
2.703139951e-08
2.702928296e-08
2.702740622e-08
2.702562572e-08
2.702407255e-08
2.702263782e-08
2.70214025e-08
2.702019897e-08
2.701888679e-08
2.701464445e-08
2.698754069e-08
2.682628817e-08
2.610712336e-08
2.367609941e-08
2.044977817e-08
3.134487704e-06
1.064662398e-06
2.886957524e-07
1.329978954e-07
1.021698489e-07
9.353379367e-08
9.047621145e-08
8.922826271e-08
8.869323719e-08
8.843420911e-08
8.827505692e-08
8.813735749e-08
8.800678417e-08
8.789108501e-08
8.781998512e-08
8.783685206e-08
8.775424397e-08
8.755235591e-08
8.743518546e-08
8.736414208e-08
8.731218174e-08
8.726626161e-08
8.722412641e-08
8.718597964e-08
8.715153585e-08
8.712051912e-08
8.70923216e-08
8.706631993e-08
8.704230699e-08
8.702096772e-08
8.700246038e-08
8.698617643e-08
8.697111134e-08
8.695710614e-08
8.694439637e-08
8.693358358e-08
8.692500345e-08
8.691618325e-08
8.690740092e-08
8.690009246e-08
8.689439588e-08
8.688901833e-08
8.688385045e-08
8.687918908e-08
8.687448588e-08
8.687054772e-08
8.686740141e-08
8.686537879e-08
8.686263343e-08
8.686149607e-08
8.686006247e-08
8.685986667e-08
8.685891114e-08
8.685806895e-08
8.685014427e-08
8.680527236e-08
8.659420743e-08
8.588144995e-08
8.437439739e-08
8.321845952e-08
2.953758507e-06
1.616056519e-06
4.599211818e-07
2.26777522e-07
1.80359738e-07
1.671059136e-07
1.621940422e-07
1.599893784e-07
1.588861421e-07
1.582796739e-07
1.57902402e-07
1.576191723e-07
1.573730369e-07
1.571516032e-07
1.569826083e-07
1.569245863e-07
1.567708464e-07
1.564868104e-07
1.563153004e-07
1.562052233e-07
1.561187427e-07
1.560382382e-07
1.55961512e-07
1.558909139e-07
1.558273086e-07
1.557698353e-07
1.557181677e-07
1.55672248e-07
1.556312935e-07
1.555945795e-07
1.555620487e-07
1.555336299e-07
1.555088201e-07
1.554881863e-07
1.554699722e-07
1.55454625e-07
1.554430278e-07
1.554316263e-07
1.554205415e-07
1.554113041e-07
1.554044666e-07
1.553983341e-07
1.553936113e-07
1.553911906e-07
1.553895561e-07
1.553886056e-07
1.553882696e-07
1.553897313e-07
1.553900291e-07
1.553932818e-07
1.553961358e-07
1.55401192e-07
1.55404727e-07
1.554105906e-07
1.554095935e-07
1.553943168e-07
1.553344013e-07
1.552999634e-07
1.559247415e-07
1.571787393e-07
4.744649228e-06
2.293855512e-06
6.417113345e-07
2.881543997e-07
2.360805754e-07
2.22904057e-07
2.178914471e-07
2.154462234e-07
2.140981979e-07
2.133039078e-07
2.128075003e-07
2.124625696e-07
2.121899705e-07
2.119556003e-07
2.117687786e-07
2.116781231e-07
2.115309179e-07
2.113033241e-07
2.111764423e-07
2.110973179e-07
2.110283126e-07
2.109565567e-07
2.108836168e-07
2.10814235e-07
2.107513253e-07
2.106952452e-07
2.106452823e-07
2.106013385e-07
2.105627738e-07
2.105290294e-07
2.104997642e-07
2.104748012e-07
2.104538573e-07
2.104374142e-07
2.104239072e-07
2.104136445e-07
2.104072243e-07
2.104012822e-07
2.103958999e-07
2.103921129e-07
2.10390225e-07
2.10389355e-07
2.103900446e-07
2.103928793e-07
2.103970452e-07
2.10402135e-07
2.104075936e-07
2.104145579e-07
2.104206564e-07
2.104296018e-07
2.104384768e-07
2.10449664e-07
2.104588293e-07
2.104723663e-07
2.104849978e-07
2.10517577e-07
2.106290392e-07
2.111302239e-07
2.127875058e-07
2.147621514e-07
6.755302526e-06
3.754357956e-06
1.390584869e-06
4.023447837e-07
2.731941927e-07
2.549500078e-07
2.498513559e-07
2.475993124e-07
2.463661906e-07
2.4563543e-07
2.451915016e-07
2.44914296e-07
2.44732168e-07
2.446049266e-07
2.445248642e-07
2.44513109e-07
2.444836517e-07
2.444259076e-07
2.444286217e-07
2.444450941e-07
2.444467606e-07
2.444291946e-07
2.444001239e-07
2.443678582e-07
2.443373853e-07
2.443103763e-07
2.442869121e-07
2.442670481e-07
2.442504742e-07
2.442369351e-07
2.44226262e-07
2.442181794e-07
2.442126453e-07
2.442099999e-07
2.442092841e-07
2.442106604e-07
2.44214271e-07
2.44218209e-07
2.442224308e-07
2.442275965e-07
2.442338135e-07
2.442404834e-07
2.442480629e-07
2.442568139e-07
2.44266382e-07
2.442766551e-07
2.442872337e-07
2.442984572e-07
2.443092102e-07
2.443217635e-07
2.443344422e-07
2.443487425e-07
2.443618354e-07
2.443792568e-07
2.444013675e-07
2.444589854e-07
2.44634462e-07
2.452198399e-07
2.466859571e-07
2.481810854e-07
3.039085055e-06
4.875686284e-06
2.903222514e-06
9.588668839e-07
3.48985978e-07
2.769054539e-07
2.65936821e-07
2.628409926e-07
2.615311273e-07
2.608678052e-07
2.605130522e-07
2.603248583e-07
2.602308761e-07
2.601946829e-07
2.602061918e-07
2.602755797e-07
2.603687065e-07
2.604766889e-07
2.606135109e-07
2.607352029e-07
2.608186431e-07
2.608654474e-07
2.608885142e-07
2.609000761e-07
2.609075775e-07
2.609138393e-07
2.609201616e-07
2.609270845e-07
2.609346183e-07
2.609427996e-07
2.60951708e-07
2.609612092e-07
2.609713593e-07
2.609823671e-07
2.609938471e-07
2.610058919e-07
2.610185163e-07
2.610310166e-07
2.610434118e-07
2.610560079e-07
2.610688448e-07
2.610815453e-07
2.610943963e-07
2.611074284e-07
2.611204602e-07
2.61133678e-07
2.611470151e-07
2.611605047e-07
2.611735585e-07
2.611871781e-07
2.612006673e-07
2.61215024e-07
2.61228921e-07
2.612462375e-07
2.612703778e-07
2.61326558e-07
2.614776822e-07
2.618998999e-07
2.627849893e-07
2.636006967e-07
1.647009877e-06
6.664689925e-06
4.988514879e-06
2.798025207e-06
7.665678574e-07
3.252245066e-07
2.781255317e-07
2.701989959e-07
2.678966403e-07
2.669876822e-07
2.665876958e-07
2.664142418e-07
2.663532462e-07
2.66357031e-07
2.664119637e-07
2.665241083e-07
2.666898421e-07
2.66898867e-07
2.671251765e-07
2.673252388e-07
2.674751694e-07
2.675761891e-07
2.676429531e-07
2.676902168e-07
2.677275061e-07
2.677594492e-07
2.67788276e-07
2.678149288e-07
2.678399282e-07
2.67863653e-07
2.678862902e-07
2.679079791e-07
2.679288981e-07
2.679491855e-07
2.679688125e-07
2.679878884e-07
2.68006457e-07
2.680243804e-07
2.680417171e-07
2.680586046e-07
2.68075092e-07
2.680910412e-07
2.681066128e-07
2.681218037e-07
2.681365406e-07
2.681509627e-07
2.681650904e-07
2.681790303e-07
2.681925495e-07
2.682059512e-07
2.682190123e-07
2.6823235e-07
2.682456227e-07
2.682614958e-07
2.682838699e-07
2.683293271e-07
2.684345007e-07
2.686805766e-07
2.691213436e-07
2.69493573e-07
1.077257523e-06
4.478196326e-06
6.091919201e-06
4.998625657e-06
2.159791894e-06
5.359966326e-07
3.033726877e-07
2.766451685e-07
2.711235161e-07
2.693732691e-07
2.686995464e-07
2.684341988e-07
2.683492455e-07
2.683577493e-07
2.684309808e-07
2.685663064e-07
2.687699703e-07
2.690285169e-07
2.693013163e-07
2.695475998e-07
2.697421062e-07
2.698825256e-07
2.699815829e-07
2.700545978e-07
2.701125687e-07
2.701616392e-07
2.702049387e-07
2.702440221e-07
2.702798046e-07
2.703129056e-07
2.703437245e-07
2.703725854e-07
2.703997556e-07
2.704254327e-07
2.704497571e-07
2.704728707e-07
2.704948836e-07
2.705158509e-07
2.705358617e-07
2.705550159e-07
2.705733851e-07
2.705909648e-07
2.706078491e-07
2.706240816e-07
2.706396754e-07
2.706546954e-07
2.706691477e-07
2.706831307e-07
2.706966165e-07
2.707097193e-07
2.707224206e-07
2.707350975e-07
2.707479508e-07
2.707630004e-07
2.707838377e-07
2.708210805e-07
2.708938833e-07
2.710344157e-07
2.712492033e-07
2.714130894e-07
7.201323299e-07
2.309732819e-06
7.122437483e-06
7.142332933e-06
5.137941657e-06
1.504527627e-06
4.040072729e-07
2.906234059e-07
2.747986443e-07
2.70873183e-07
2.695404053e-07
2.690375331e-07
2.688631048e-07
2.688424941e-07
2.68914142e-07
2.690600613e-07
2.692835448e-07
2.695665928e-07
2.698632904e-07
2.701357075e-07
2.703589441e-07
2.705276043e-07
2.706511542e-07
2.707437953e-07
2.708171314e-07
2.708783768e-07
2.709315171e-07
2.709787499e-07
2.710214003e-07
2.710603419e-07
2.710961733e-07
2.711293695e-07
2.711602781e-07
2.711891824e-07
2.712163076e-07
2.712418411e-07
2.712659424e-07
2.712887328e-07
2.713103316e-07
2.713308417e-07
2.713503552e-07
2.713689275e-07
2.713866404e-07
2.714035523e-07
2.714197115e-07
2.714351731e-07
2.714499642e-07
2.714641475e-07
2.71477753e-07
2.714908568e-07
2.715035395e-07
2.715161165e-07
2.715291108e-07
2.715443059e-07
2.715651659e-07
2.71599134e-07
2.716569343e-07
2.717512291e-07
2.718755696e-07
2.719581398e-07
5.381817818e-07
1.494443319e-06
6.118480998e-06
8.511052589e-06
7.760754898e-06
4.079733864e-06
8.315742931e-07
3.306891471e-07
2.820020323e-07
2.729283721e-07
2.702678789e-07
2.693153379e-07
2.689681302e-07
2.688799742e-07
2.689296062e-07
2.690740843e-07
2.693059269e-07
2.696011533e-07
2.699111938e-07
2.701998761e-07
2.704430048e-07
2.706332616e-07
2.707771014e-07
2.708867952e-07
2.70973647e-07
2.710454309e-07
2.711068405e-07
2.711606737e-07
2.712086945e-07
2.712520842e-07
2.712916634e-07
2.713280453e-07
2.713616852e-07
2.713929441e-07
2.714221082e-07
2.714494141e-07
2.714750566e-07
2.714991983e-07
2.715219802e-07
2.715435234e-07
2.71563935e-07
2.715833006e-07
2.716017056e-07
2.716192193e-07
2.71635903e-07
2.71651814e-07
2.716669986e-07
2.716815118e-07
2.71695404e-07
2.717087514e-07
2.717216885e-07
2.717345621e-07
2.717481167e-07
2.71764191e-07
2.717862917e-07
2.718204009e-07
2.718737371e-07
2.719518224e-07
2.720443168e-07
2.720962643e-07
4.207767881e-07
9.257479664e-07
3.223586336e-06
9.551885333e-06
1.028051686e-05
7.301013505e-06
1.934743824e-06
4.472816144e-07
2.968957827e-07
2.761682886e-07
2.71200464e-07
2.695896782e-07
2.690085488e-07
2.688269454e-07
2.68839459e-07
2.689720817e-07
2.692034196e-07
2.695029342e-07
2.698198996e-07
2.701189624e-07
2.703765308e-07
2.705840908e-07
2.707456447e-07
2.708713209e-07
2.709714618e-07
2.710538348e-07
2.711235487e-07
2.71183901e-07
2.712370991e-07
2.71284674e-07
2.713277078e-07
2.713669843e-07
2.714030838e-07
2.714364519e-07
2.714674384e-07
2.714963275e-07
2.71523352e-07
2.715487068e-07
2.715725572e-07
2.715950442e-07
2.716162905e-07
2.716364003e-07
2.71655467e-07
2.716735714e-07
2.716907835e-07
2.717071683e-07
2.717227821e-07
2.717376836e-07
2.71751938e-07
2.717656398e-07
2.717789719e-07
2.717923601e-07
2.718067395e-07
2.71824118e-07
2.718480804e-07
2.718839148e-07
2.719371894e-07
2.72010358e-07
2.720910396e-07
2.721288625e-07
3.392298502e-07
6.895261874e-07
2.060415178e-06
9.68021132e-06
1.292582414e-05
1.073173004e-05
4.272678306e-06
7.63729204e-07
3.324201764e-07
2.82139875e-07
2.726950182e-07
2.700408532e-07
2.691234614e-07
2.688081566e-07
2.68762138e-07
2.688692833e-07
2.690900697e-07
2.693860152e-07
2.697037056e-07
2.700077238e-07
2.702748665e-07
2.704957755e-07
2.706724528e-07
2.708129663e-07
2.709263029e-07
2.710197084e-07
2.710983066e-07
2.711656763e-07
2.712243997e-07
2.71276368e-07
2.713229585e-07
2.713651698e-07
2.714037332e-07
2.71439197e-07
2.714719847e-07
2.715024331e-07
2.715308165e-07
2.715573619e-07
2.715822608e-07
2.716056752e-07
2.716277447e-07
2.716485886e-07
2.71668311e-07
2.716870034e-07
2.717047455e-07
2.717216105e-07
2.717376635e-07
2.717529713e-07
2.717676144e-07
2.717817156e-07
2.717955154e-07
2.718095438e-07
2.718249169e-07
2.718438242e-07
2.718698817e-07
2.719079076e-07
2.719623811e-07
2.720338924e-07
2.721085163e-07
2.721367901e-07
2.991925682e-07
5.439453621e-07
1.403948588e-06
5.978530816e-06
1.482217202e-05
1.416820478e-05
7.268948267e-06
1.521017096e-06
4.096523388e-07
2.932908074e-07
2.750838674e-07
2.707614959e-07
2.693667576e-07
2.688668837e-07
2.687371422e-07
2.688038891e-07
2.690040399e-07
2.692884521e-07
2.695998387e-07
2.699026166e-07
2.701736013e-07
2.704029148e-07
2.705910017e-07
2.707440739e-07
2.708696122e-07
2.709739557e-07
2.710618191e-07
2.711367313e-07
2.712014582e-07
2.712581806e-07
2.713085703e-07
2.713538692e-07
2.713949886e-07
2.714326035e-07
2.714672253e-07
2.714992532e-07
2.715290075e-07
2.715567503e-07
2.715827005e-07
2.716070424e-07
2.716299335e-07
2.716515082e-07
2.71671883e-07
2.716911598e-07
2.717094287e-07
2.717267714e-07
2.717432619e-07
2.717589781e-07
2.717740191e-07
2.717885454e-07
2.718028671e-07
2.718176294e-07
2.718341177e-07
2.718546701e-07
2.718828601e-07
2.719230596e-07
2.719788188e-07
2.720492682e-07
2.721192687e-07
2.721389951e-07
2.643370448e-07
4.542531942e-07
1.038142804e-06
3.625478985e-06
1.741882309e-05
1.775799176e-05
1.057655143e-05
2.855321027e-06
5.569179141e-07
3.12743757e-07
2.785403753e-07
2.716944419e-07
2.696981654e-07
2.689891074e-07
2.687666274e-07
2.687864209e-07
2.689598145e-07
2.692265387e-07
2.69525342e-07
2.698202495e-07
2.700884995e-07
2.70320034e-07
2.705143349e-07
2.706760854e-07
2.708113384e-07
2.709253394e-07
2.710220575e-07
2.711046034e-07
2.711756272e-07
2.712374172e-07
2.712918603e-07
2.713404267e-07
2.713842202e-07
2.714240599e-07
2.714605611e-07
2.71494196e-07
2.715253375e-07
2.715542868e-07
2.715812923e-07
2.716065622e-07
2.716302726e-07
2.71652574e-07
2.716735962e-07
2.716934525e-07
2.717122428e-07
2.717300575e-07
2.717469813e-07
2.717631061e-07
2.717785546e-07
2.717935336e-07
2.718084322e-07
2.718240139e-07
2.718417148e-07
2.718639716e-07
2.718942448e-07
2.719364391e-07
2.719932389e-07
2.720625365e-07
2.721282409e-07
2.721395803e-07
2.323353473e-07
4.040800194e-07
8.917439378e-07
3.30946317e-06
2.078858306e-05
2.151103884e-05
1.342683487e-05
4.669121547e-06
8.613566933e-07
3.55437359e-07
2.850865044e-07
2.732813806e-07
2.702751341e-07
2.692452745e-07
2.688863904e-07
2.688379305e-07
2.689723201e-07
2.692128511e-07
2.694917721e-07
2.69771768e-07
2.700300944e-07
2.702569651e-07
2.704512203e-07
2.706164121e-07
2.707574057e-07
2.708783741e-07
2.709823807e-07
2.710718346e-07
2.71148951e-07
2.71215859e-07
2.712744891e-07
2.71326455e-07
2.713730235e-07
2.714151566e-07