/*--------------------------------*- C++ -*----------------------------------*\
  =========                 |
  \\      /  F ield         | OpenFOAM: The Open Source CFD Toolbox
   \\    /   O peration     | Website:  https://openfoam.org
    \\  /    A nd           | Version:  10
     \\/     M anipulation  |
\*---------------------------------------------------------------------------*/
FoamFile
{
    format      ascii;
    class       volScalarField;
    location    "0.0250188088";
    object      H2O_0;
}
// * * * * * * * * * * * * * * * * * * * * * * * * * * * * * * * * * * * * * //

dimensions      [0 0 0 0 0 0 0];

internalField   nonuniform List<scalar> 
5170
(
2.587103096e-09
2.582549646e-09
2.552581073e-09
2.341564536e-09
1.810450661e-10
5.184340582e-09
5.170145751e-09
5.10647154e-09
4.78173678e-09
2.949254289e-09
7.768781159e-09
7.745332028e-09
7.652612202e-09
7.265466354e-09
5.741267594e-09
1.032044587e-08
1.028894482e-08
1.017486291e-08
9.7639437e-09
8.551644148e-09
1.283579705e-08
1.279773579e-08
1.267065424e-08
1.226662757e-08
1.136273733e-08
1.53144599e-08
1.527242141e-08
1.514094638e-08
1.477125939e-08
1.417178799e-08
1.775942149e-08
1.771555288e-08
1.758787075e-08
1.727932669e-08
1.697983731e-08
2.017637128e-08
2.013360306e-08
2.001728781e-08
1.979189726e-08
1.978947648e-08
2.257050289e-08
2.253130582e-08
2.243457384e-08
2.231295049e-08
2.26041016e-08
2.494705586e-08
2.491314035e-08
2.484145916e-08
2.484680607e-08
2.54275073e-08
2.730908424e-08
2.728227153e-08
2.724046021e-08
2.739561029e-08
2.826080386e-08
2.965731421e-08
2.963992954e-08
2.963812661e-08
2.995917988e-08
3.110169043e-08
3.199262635e-08
3.198702029e-08
3.203683435e-08
3.253765571e-08
3.394733422e-08
3.431556252e-08
3.432419252e-08
3.443598267e-08
3.513040709e-08
3.679442819e-08
3.662606992e-08
3.665191137e-08
3.68354124e-08
3.773531101e-08
3.963877528e-08
3.892338256e-08
3.896979831e-08
3.923826148e-08
4.035198561e-08
4.247275996e-08
4.120736785e-08
4.127810943e-08
4.164163856e-08
4.29746714e-08
4.529814911e-08
4.347833849e-08
4.357791314e-08
4.405349406e-08
4.561482173e-08
4.813816076e-08
4.575984777e-08
4.596360269e-08
4.710634467e-08
5.285960817e-08
6.961423108e-08
5.492872346e-08
8.695471186e-08
3.598472809e-07
2.254316736e-06
1.075397694e-05
0.09522133587
0.09522023754
0.09522106618
0.09522057466
0.09522016447
0.09578189189
0.09571520349
0.09571604156
0.0957240859
0.09580827177
0.09608697011
0.09600701741
0.09600629915
0.0960322678
0.09612957383
0.09626671149
0.09618954051
0.09618664562
0.09622478716
0.09631086877
0.09638089022
0.09631242413
0.09630957564
0.09634750314
0.09642922909
0.0964484337
0.09639522337
0.09638998439
0.09642928563
0.09649642132
0.09650636816
0.09645129577
0.09644719191
0.09648404127
0.0965473247
0.09654959893
0.0965032216
0.09649818292
0.09652702774
0.09659960561
0.09659624238
0.09654172488
0.09653690847
0.09657851728
0.09664994089
0.09664071527
0.09658932291
0.09658403989
0.09662547745
0.09668421948
0.09667338829
0.09663203265
0.096626919
0.09666511964
0.0967096812
0.09669855599
0.09666798793
0.09666411259
0.09669209502
0.09673116423
0.0967195538
0.09669282241
0.09668996797
0.09671594371
0.09675202486
0.0967398574
0.09671465086
0.09671251342
0.09673627278
0.09677145385
0.09675944408
0.09673361458
0.09673204686
0.09675559135
0.09678907743
0.09677751201
0.09675212557
0.09675111613
0.09677415434
0.09680495614
0.09679380743
0.09677022219
0.09676977262
0.09679135299
0.09681888684
0.09680756693
0.09678715833
0.09678742027
0.09680689576
0.09683035795
0.09682821817
0.09680461248
0.0968033563
0.09681818208
0.09683437164
0.09802085621
0.09703520376
0.09678377085
0.09664764335
0.09640979786
3.126105387e-07
2.100419982e-06
3.171797064e-05
0.0004725764246
0.006332924361
1.501126559e-06
9.862771175e-06
0.0001198154664
0.001256821285
0.009608650541
4.879774226e-06
2.939612289e-05
0.0002948094772
0.002347733872
0.01212567465
1.270287066e-05
6.941035015e-05
0.0005874301345
0.003715242405
0.01422595399
2.916558392e-05
0.0001463562688
0.001056852574
0.005321065165
0.01602203129
6.153014148e-05
0.0002851391589
0.001741969649
0.007044094309
0.01769895714
0.000121750466
0.0005184762265
0.00265642218
0.008807898206
0.01934972362
0.0002286297749
0.0008859600909
0.003796807195
0.01059193182
0.02099284518
0.0004134398704
0.001441879238
0.00515288264
0.01237582678
0.02259258596
0.0007247441167
0.002239752289
0.006702452828
0.014188925
0.02420426641
0.001239125208
0.003341990562
0.008432560595
0.01605392735
0.02585617706
0.002101306244
0.00478096688
0.0103053678
0.01798799621
0.0275629706
0.003489025816
0.006562484522
0.01232809536
0.01999974425
0.02933369341
0.005369652088
0.00865196021
0.01450130704
0.02208712611
0.03115101567
0.00792488034
0.01114892335
0.01689745576
0.02430037797
0.03305633286
0.01100777009
0.01403002497
0.01955781098
0.02670641455
0.03511607606
0.01464656848
0.01741518141
0.02262141446
0.02941484594
0.03740545013
0.01892377377
0.02137783388
0.0261510179
0.03250741358
0.04005531463
0.02352607086
0.02569732225
0.03005655968
0.03599426356
0.0431208182
0.02842547969
0.03034692278
0.03423489993
0.03952470381
0.04580197737
0.03337737625
0.03488488244
0.03788689983
0.04182751454
0.04624418909
0.03695225745
0.03775751917
0.03935096729
0.04137978473
0.04351539752
0.03659510477
0.0368647476
0.03737251873
0.03795559737
0.03844881048
0.03282858567
0.03282993876
0.03278716263
0.03263906494
0.03232258637
0.02747682217
0.02738203154
0.02714682399
0.02675814621
0.02620674843
0.02201279365
0.02190585609
0.02165798137
0.02127022099
0.02074670153
0.0175446821
0.01745486869
0.01724697868
0.01692644043
0.01650164113
0.01397722006
0.01390753751
0.01374750178
0.01350268113
0.01318090584
0.01121479367
0.01116300144
0.01104468036
0.01086435383
0.01062808329
0.009107996144
0.009070318233
0.008984531148
0.00885398817
0.008683029708
0.007514269183
0.007487093747
0.007425363575
0.00733144826
0.007208326204
0.006314226455
0.00629457642
0.006250022549
0.006182209852
0.006093136049
0.005412719825
0.005398319554
0.005365738619
0.005316122279
0.005250798249
0.004736460748
0.004725663844
0.004701303351
0.004664197399
0.004615230995
0.004229900395
0.004221555465
0.004202798137
0.004174235787
0.004136465317
0.003850430675
0.003843753367
0.003828810301
0.003806075635
0.003775961037
0.003564596088
0.003559062263
0.003546736268
0.003528006368
0.003503165243
0.003346007016
0.003341276142
0.003330783764
0.003314861138
0.003293724691
0.00317433455
0.003170189442
0.003161028889
0.003147143502
0.003128700062
0.003034584387
0.003030888531
0.003022742095
0.003010404519
0.002994009481
0.002916243585
0.002912909959
0.002905575009
0.002894472446
0.002879712937
0.002812312523
0.002809283777
0.002802626781
0.002792553131
0.002779156741
0.002718339311
0.002715574949
0.002709502824
0.002700314887
0.00268809219
0.002631595726
0.002629065209
0.002623508192
0.002615099175
0.002603908952
0.002550438284
0.002548116714
0.002543019075
0.002535304163
0.002525034276
0.002473870347
0.002471736734
0.002467051715
0.00245996005
0.002450516884
0.002401264956
0.002399301015
0.002394988308
0.002388458971
0.002379762005
0.002332201633
0.0023303913
0.002326415521
0.002320395137
0.002312373847
0.002266377311
0.002264706301
0.00226103614
0.002255477502
0.002248069457
0.002203550694
0.002202006281
0.002198613786
0.00219347476
0.002186624223
0.002143510078
0.002142080719
0.002138940773
0.002134183543
0.002127840486
0.002086105889
0.002084781492
0.002081871719
0.002077462477
0.002071582112
0.002031155955
0.002029927217
0.002027227365
0.002023135591
0.002017677483
0.001978510155
0.001977368793
0.001974860687
0.001971058968
0.001965986786
0.001928029694
0.001926968255
0.001924635585
0.001921099301
0.001916380391
0.001879587816
0.001878599581
0.0018764276
0.001873134492
0.001868739325
0.001833069388
0.001832148274
0.001830123667
0.001827053634
0.001822955531
0.001788367639
0.001787508125
0.001785618772
0.001782753511
0.001778928175
0.00174538241
0.001744579499
0.001742814463
0.001740137451
0.001736562934
0.001704013152
0.001703262297
0.001701611588
0.001699107729
0.00169576397
0.00166416345
0.001663460578
0.001661915266
0.00165957105
0.001656440088
0.001625731052
0.001625072446
0.001623624362
0.001621427443
0.001618492866
0.00158863392
0.001588016357
0.001586658433
0.001584598112
0.001581845683
0.001552786343
0.001552206764
0.001550932263
0.00154899834
0.001546414486
0.001518146148
0.00151760198
0.001516405273
0.001514589236
0.001512162632
0.001484634124
0.0014841228
0.001482998234
0.001481291524
0.001479010769
0.001452279286
0.001451798694
0.001450741665
0.00144913733
0.001446993174
0.001421007878
0.001420555493
0.001419560445
0.001418050082
0.001416031358
0.001391322639
0.001390896525
0.001389959277
0.001388536595
0.001386634917
0.001365851483
0.001365446662
0.001364556189
0.001363204418
0.001361397372
0.02309473591
0.02402869209
0.02477683227
0.02560695264
0.02647645908
0.0274901316
0.0286197878
0.02981536984
0.03099449
0.03223048194
0.03355108759
0.03495818076
0.0364519078
0.03797987563
0.03959609003
0.04135971311
0.04332008169
0.0456657356
0.04845683117
0.05039965852
0.04925638739
0.04485472671
0.03866817187
0.03201776385
0.02577354272
0.02034734114
0.01618368997
0.01294140778
0.01045235128
0.008555636335
0.007116233239
0.006026148866
0.005201324271
0.004577818351
0.004107305482
0.003752445526
0.003483547301
0.003276863007
0.003113865573
0.002980741255
0.002867716489
0.002768236343
0.002678109247
0.002594757475
0.002516627963
0.002442782268
0.002372634982
0.002305797789
0.002241993953
0.002181004105
0.002122635125
0.002066755158
0.002013195998
0.001961821186
0.001912504065
0.00186512819
0.001819587812
0.001775784029
0.001733624432
0.001693014719
0.001653865429
0.001616079402
0.001579581812
0.00154428907
0.001510166422
0.001477134414
0.001445229055
0.001414370325
0.001385070009
0.001359910131
0.0566919059
0.1104767894
0.09646083102
0.0862208474
0.06354749322
0.05019806901
0.0935991261
0.1061415165
0.08238621949
0.05089504502
0.04721073008
0.08328759082
0.1136798946
0.08582475301
0.0486258611
0.04563158072
0.07878157178
0.1157139089
0.09354103945
0.05780205398
0.04473840821
0.07532095888
0.1095483383
0.1019568481
0.07018664621
0.04435372828
0.07251665849
0.1032669691
0.108994254
0.08148148233
0.04431645599
0.07044713836
0.09903601307
0.1140320289
0.09191141139
0.04451462463
0.06885037112
0.09555001319
0.1165770026
0.1005081587
0.04481266327
0.06755199975
0.09247134654
0.1147880984
0.1069324192
0.0452802775
0.06663378218
0.09009170758
0.1125373882
0.1119019765
0.04593288203
0.06615913958
0.08846389371
0.1105981957
0.1155763817
0.04675244049
0.06598697285
0.08718906927
0.1086206714
0.1181320877
0.04770361432
0.06596557048
0.08589556284
0.1060306741
0.1181277179
0.04870143534
0.06600741506
0.08476979863
0.1038390667
0.1171942211
0.04980153641
0.06621237231
0.08393895246
0.1021161277
0.1161643404
0.05106063349
0.06662968652
0.08340270772
0.1006851655
0.1150259291
0.05247937072
0.06717215133
0.08300870322
0.09946361635
0.1138114707
0.05431587386
0.06832263031
0.08355842466
0.09954464819
0.1134659879
0.05665954412
0.07020111748
0.08514294283
0.1009219959
0.113790625
0.05738912893
0.0683685494
0.07969825151
0.09214255159
0.1076068606
0.0538068555
0.05969824475
0.06377833108
0.06530964312
0.0633441511
0.0469491667
0.04866919724
0.04835578002
0.04572349129
0.04082540162
0.03915570576
0.03863511869
0.03665158896
0.03332504074
0.02898406834
0.03174810695
0.03042964319
0.0282247012
0.02532101961
0.02199675233
0.02529719807
0.02394132087
0.02203813407
0.01975778371
0.01728745469
0.01988660858
0.01875261545
0.01727418869
0.01557870868
0.01378963995
0.01581226035
0.01493840904
0.0138310244
0.01258235375
0.01127578811
0.01265944513
0.01200954034
0.01119534548
0.01028202005
0.009326367399
0.01024423622
0.009768670237
0.009174767028
0.008507932926
0.007807125151
0.008403882053
0.008058214074
0.007626019844
0.007138620651
0.006622776386
0.007005741966
0.006754366538
0.006439035027
0.00608115802
0.005699086198
0.005944972019
0.005760630425
0.005528554533
0.005263294757
0.004977417476
0.005140486928
0.005003025311
0.004829580539
0.004630021537
0.004412959684
0.00453085244
0.004425823041
0.004293371087
0.004140194289
0.003972208067
0.004069704975
0.003986997326
0.00388312031
0.003762627391
0.003629597157
0.003721172551
0.003653842803
0.003569901774
0.003472456338
0.003364337027
0.003456630411
0.003400010577
0.003330079885
0.003248976856
0.003158689985
0.0032530741
0.00320410229
0.00314419372
0.003074846228
0.002997486042
0.003092464064
0.003049175852
0.00299665766
0.002935987566
0.002868219028
0.002961283735
0.002922431373
0.002875589304
0.002821561697
0.002761154646
0.002849927082
0.002814708159
0.002772423171
0.002723695879
0.00266916625
0.002751926693
0.002719803541
0.002681328016
0.002637002157
0.00258735046
0.002663134731
0.002633722802
0.002598533426
0.002557983148
0.002512513138
0.002580995159
0.002553997118
0.002521703897
0.002484468869
0.002442670026
0.002503967905
0.002479139423
0.002449433499
0.002415154586
0.002376630462
0.002431124343
0.002408255941
0.002380880205
0.002349262098
0.002313688274
0.002361887964
0.00234079587
0.00231552936
0.002286320731
0.002253422006
0.002295879008
0.002276400427
0.002253049863
0.002226031531
0.002195567775
0.002232828705
0.002214818057
0.00219321138
0.002168188866
0.002139947088
0.002172524887
0.002155851464
0.002135834708
0.002112633994
0.002086423639
0.002114781013
0.002099327211
0.002080762168
0.002059227139
0.002034876766
0.0020594716
0.002045131498
0.002027893128
0.002007881943
0.001985235434
0.002006433421
0.001993111267
0.001977086711
0.001958471362
0.001937387653
0.001955535053
0.001943144629
0.001928232122
0.001910896988
0.001891248419
0.001906654296
0.001895117903
0.001881225585
0.001865066134
0.001846737078
0.001859678493
0.001848925733
0.001835970322
0.001820891654
0.001803776984
0.001814505341
0.001804472481
0.001792378521
0.00177829457
0.001762298799
0.001771038845
0.001761667729
0.001750366298
0.001737198339
0.001722233986
0.001729189482
0.001720427513
0.00170985618
0.001697532798
0.001683520346
0.001688865317
0.001680664295
0.001670765723
0.001659221114
0.001646087181
0.001649979545
0.001642296446
0.00163301929
0.001622194609
0.001609873547
0.001612436978
0.001605232321
0.001596529504
0.001586370615
0.001574801863
0.001576165429
0.001569404977
0.001561235402
0.001551694783
0.001540824977
0.001541082072
0.001534733107
0.001527057692
0.001518090489
0.001507869469
0.001507154781
0.001501190022
0.001493976179
0.0014855448
0.001475930357
0.001474304048
0.001468695722
0.001461910294
0.001453976535
0.001444925678
0.0014425682
0.001437293948
0.001430910407
0.001423443552
0.001414921864
0.001411865205
0.001406897881
0.001400883931
0.001393847197
0.001385813538
0.001382709524
0.001378028653
0.001372360152
0.001365725614
0.001358148406
0.001357666703
0.001353216603
0.001347826662
0.001341516769
0.001334308458
0.007604729304
0.0004902993676
3.934098985e-05
7.176092602e-06
2.325420285e-06
9.77247241e-07
4.684254122e-07
2.591086661e-07
1.721550923e-07
1.365388304e-07
1.221877644e-07
1.164226566e-07
1.140620174e-07
1.130625437e-07
1.126549483e-07
1.125784909e-07
1.124221473e-07
1.121339583e-07
1.119762484e-07
1.118854507e-07
1.118208548e-07
1.117660944e-07
1.117157367e-07
1.116689499e-07
1.116257168e-07
1.115859394e-07
1.115494327e-07
1.115159527e-07
1.114848323e-07
1.114557575e-07
1.114287561e-07
1.114037878e-07
1.113805613e-07
1.113589512e-07
1.113387063e-07
1.113200869e-07
1.113032231e-07
1.112875144e-07
1.112728666e-07
1.11259347e-07
1.112467925e-07
1.112349027e-07
1.112235978e-07
1.112125173e-07
1.112022815e-07
1.111936304e-07
1.111862103e-07
1.111796597e-07
1.1117345e-07
1.111680643e-07
1.111631006e-07
1.11158861e-07
1.111547295e-07
1.111502045e-07
1.11135e-07
1.110361651e-07
1.104449071e-07
1.077996695e-07
9.883471531e-08
8.694752043e-08
0.01292585891
0.001363652711
0.0001136643785
1.706598697e-05
4.9987044e-06
2.150170672e-06
1.143303899e-06
7.1044134e-07
5.112417554e-07
4.187057608e-07
3.761087468e-07
3.565931048e-07
3.475882123e-07
3.433493042e-07
3.413707321e-07
3.406380695e-07
3.399921634e-07
3.391329661e-07
3.386531684e-07
3.383719415e-07
3.381736335e-07
3.380032679e-07
3.378493611e-07
3.377111345e-07
3.375868383e-07
3.374752179e-07
3.373738967e-07
3.372805456e-07
3.371943839e-07
3.371179604e-07
3.370519098e-07
3.36993953e-07
3.369403566e-07
3.36890576e-07
3.368454862e-07
3.368073028e-07
3.367772835e-07
3.367463054e-07
3.367154067e-07
3.366898847e-07
3.366702618e-07
3.366517649e-07
3.366339716e-07
3.366180198e-07
3.366018561e-07
3.365884538e-07
3.365779307e-07
3.365714906e-07
3.365623157e-07
3.365590569e-07
3.365546003e-07
3.365547226e-07
3.365519911e-07
3.365497017e-07
3.365217048e-07
3.363601422e-07
3.355977553e-07
3.33026876e-07
3.276320313e-07
3.235521585e-07
0.01567365843
0.002172342179
0.0001755355722
2.327157152e-05
6.405641192e-06
2.843317983e-06
1.650462919e-06
1.130625753e-06
8.718177694e-07
7.378209909e-07
6.680825937e-07
6.31938232e-07
6.132507745e-07
6.035421889e-07
5.985191061e-07
5.961332121e-07
5.945501968e-07
5.930825118e-07
5.922624683e-07
5.917752412e-07
5.914235647e-07
5.911159616e-07
5.90832047e-07
5.90574784e-07
5.903448134e-07
5.901378761e-07
5.899523026e-07
5.897877061e-07
5.896411539e-07
5.895099629e-07
5.893939489e-07
5.892928642e-07
5.892048386e-07
5.89131976e-07
5.890678422e-07
5.890140911e-07
5.889739845e-07
5.889344749e-07
5.888960599e-07
5.888643276e-07
5.88841297e-07
5.888207707e-07
5.888053216e-07
5.887982161e-07
5.887939199e-07
5.88792049e-07
5.887923592e-07
5.887991658e-07
5.888016335e-07
5.888148648e-07
5.888265343e-07
5.888462256e-07
5.888602802e-07
5.888828723e-07
5.888806874e-07
5.888282443e-07
5.886201507e-07
5.885286567e-07
5.908936265e-07
5.955495366e-07
0.02457792426
0.00564012009
0.0005269355886
4.054660071e-05
7.854494261e-06
3.247088419e-06
1.962930784e-06
1.423705943e-06
1.147445424e-06
9.943631596e-07
9.070046734e-07
8.568724229e-07
8.282421078e-07
8.120218874e-07
8.02978186e-07
7.981980008e-07
7.954106914e-07
7.935273776e-07
7.92565861e-07
7.920482303e-07
7.916953518e-07
7.913916511e-07
7.911104185e-07
7.908539861e-07
7.906261484e-07
7.904251515e-07
7.902471279e-07
7.900911731e-07
7.899547441e-07
7.898357294e-07
7.897328619e-07
7.896455012e-07
7.895726086e-07
7.895159587e-07
7.894698539e-07
7.894354213e-07
7.894148686e-07
7.893959345e-07
7.89378949e-07
7.893676707e-07
7.89363205e-07
7.893623377e-07
7.893670446e-07
7.893794586e-07
7.893966317e-07
7.894170768e-07
7.894387724e-07
7.894658614e-07
7.894897115e-07
7.895238398e-07
7.89557618e-07
7.895997454e-07
7.896344391e-07
7.896850346e-07
7.897325612e-07
7.898538424e-07
7.902661566e-07
7.921066843e-07
7.981669201e-07
8.053700596e-07
0.03613784798
0.01192620915
0.002097965039
0.0001730710205
1.819807608e-05
4.798348448e-06
2.435801027e-06
1.682969533e-06
1.344767052e-06
1.165411241e-06
1.062265182e-06
1.000736855e-06
9.637260356e-07
9.414940498e-07
9.283845256e-07
9.210026644e-07
9.169106508e-07
9.146788555e-07
9.136792949e-07
9.132541884e-07
9.1303586e-07
9.128726997e-07
9.127259832e-07
9.125940606e-07
9.124802246e-07
9.123838224e-07
9.123022081e-07
9.122343077e-07
9.121784679e-07
9.121335562e-07
9.1209888e-07
9.120734276e-07
9.120570355e-07
9.12050949e-07
9.12051699e-07
9.120598827e-07
9.120760381e-07
9.120932488e-07
9.121113757e-07
9.121328111e-07
9.121579473e-07
9.121846076e-07
9.122144572e-07
9.122484451e-07
9.122852957e-07
9.123246018e-07
9.123649282e-07
9.124075028e-07
9.124482811e-07
9.124954936e-07
9.125430732e-07
9.125964553e-07
9.126453986e-07
9.127100312e-07
9.127918896e-07
9.130033685e-07
9.136447172e-07
9.157771263e-07
9.211058985e-07
9.265317592e-07
0.04885946084
0.02206322352
0.006561745298
0.001029303337
8.832212361e-05
1.229536415e-05
3.9013035e-06
2.137692466e-06
1.547426588e-06
1.288683822e-06
1.156007738e-06
1.081117129e-06
1.03641103e-06
1.009050577e-06
9.923453963e-07
9.824926938e-07
9.76978204e-07
9.741626834e-07
9.729496359e-07
9.725219575e-07
9.724022385e-07
9.723755859e-07
9.723724248e-07
9.723788492e-07
9.723937826e-07
9.724143982e-07
9.724394694e-07
9.724683303e-07
9.724999184e-07
9.725339053e-07
9.725703841e-07
9.726088272e-07
9.726494197e-07
9.726929221e-07
9.727379484e-07
9.727848472e-07
9.728336856e-07
9.728819282e-07
9.729296556e-07
9.729779805e-07
9.730270551e-07
9.730755182e-07
9.731244156e-07
9.731738547e-07
9.732231852e-07
9.732730879e-07
9.733233337e-07
9.733740432e-07
9.734230931e-07
9.734740971e-07
9.735245481e-07
9.735780643e-07
9.736298774e-07
9.736940948e-07
9.737833045e-07
9.73989367e-07
9.745411342e-07
9.760768264e-07
9.792876977e-07
9.822416557e-07
0.06055145622
0.03285147609
0.01397343075
0.003938921251
0.0005350884576
4.830274317e-05
8.536937287e-06
3.187189164e-06
1.889977779e-06
1.432192609e-06
1.232618022e-06
1.132319613e-06
1.076419799e-06
1.043109315e-06
1.022678083e-06
1.010244742e-06
1.00305102e-06
9.992702551e-07
9.975216654e-07
9.968597757e-07
9.966900901e-07
9.967070171e-07
9.967861733e-07
9.968858078e-07
9.969921324e-07
9.970985083e-07
9.972020386e-07
9.973011656e-07
9.973955978e-07
9.974857671e-07
9.975719729e-07
9.97654586e-07
9.977342012e-07
9.97811321e-07
9.978858486e-07
9.979581942e-07
9.980285287e-07
9.980963697e-07
9.981619407e-07
9.982257479e-07
9.982879781e-07
9.983481409e-07
9.984068248e-07
9.984640229e-07
9.985194766e-07
9.985736902e-07
9.98626744e-07
9.986790297e-07
9.987297187e-07
9.987799005e-07
9.988287749e-07
9.988785855e-07
9.989281443e-07
9.989871975e-07
9.990701782e-07
9.992377529e-07
9.99623503e-07
1.000521389e-06
1.002123435e-06
1.003472247e-06
0.07123766425
0.04329788919
0.02288895264
0.009530352996
0.002361395443
0.0002467496838
2.565192463e-05
5.911685403e-06
2.589844303e-06
1.671312861e-06
1.331903523e-06
1.182295773e-06
1.106826497e-06
1.064506025e-06
1.039156836e-06
1.02364781e-06
1.014452852e-06
1.009386115e-06
1.00681405e-06
1.005678208e-06
1.005281246e-06
1.005221e-06
1.005300667e-06
1.005435263e-06
1.00558867e-06
1.005744352e-06
1.005894735e-06
1.006036592e-06
1.006169219e-06
1.00629309e-06
1.006408912e-06
1.006517559e-06
1.006619893e-06
1.006716606e-06
1.006808205e-06
1.006895221e-06
1.006978065e-06
1.007056954e-06
1.007132225e-06
1.00720425e-06
1.0072733e-06
1.007339367e-06
1.007402802e-06
1.00746377e-06
1.007522326e-06
1.00757871e-06
1.007632944e-06
1.00768539e-06
1.007735958e-06
1.007785064e-06
1.007832653e-06
1.007880107e-06
1.007928214e-06
1.007984435e-06
1.008062162e-06
1.008200627e-06
1.008470215e-06
1.008987646e-06
1.009774217e-06
1.010370701e-06
0.08103770011
0.05290911665
0.03131820947
0.01650286005
0.006636740244
0.001200532431
0.0001001524542
1.379265612e-05
4.146020764e-06
2.116485312e-06
1.489763246e-06
1.249289093e-06
1.140967299e-06
1.08481595e-06
1.052503122e-06
1.032913476e-06
1.021134052e-06
1.014390668e-06
1.010723703e-06
1.00890592e-06
1.008120468e-06
1.007866469e-06
1.007867845e-06
1.00798509e-06
1.0081499e-06
1.008328623e-06
1.008505112e-06
1.008672411e-06
1.008828324e-06
1.00897285e-06
1.009106773e-06
1.009231236e-06
1.009347276e-06
1.009455844e-06
1.009557741e-06
1.009653657e-06
1.009744183e-06
1.009829779e-06
1.00991089e-06
1.009987905e-06
1.010061169e-06
1.010130894e-06
1.010197385e-06
1.010260864e-06
1.010321515e-06
1.010379544e-06
1.010435054e-06
1.010488277e-06
1.010539325e-06
1.010588482e-06
1.010636055e-06
1.010683219e-06
1.010731945e-06
1.01078889e-06
1.010867069e-06
1.010994322e-06
1.011210527e-06
1.011561823e-06
1.012022489e-06
1.01232515e-06
0.08993552231
0.06230107887
0.03958244922
0.02308477074
0.01163609472
0.003683402714
0.000418252518
3.65807646e-05
7.364610117e-06
2.873968357e-06
1.728277949e-06
1.342293759e-06
1.185306907e-06
1.109676384e-06
1.067828318e-06
1.042736074e-06
1.027494489e-06
1.018511633e-06
1.013385576e-06
1.010640323e-06
1.00929436e-06
1.008726681e-06
1.008570291e-06
1.008620528e-06
1.008766698e-06
1.008950008e-06
1.009140604e-06
1.009324734e-06
1.009497167e-06
1.009656748e-06
1.009804001e-06
1.009940084e-06
1.010066213e-06
1.010183534e-06
1.010293034e-06
1.010395568e-06
1.010491856e-06
1.010582505e-06
1.010668044e-06
1.010748928e-06
1.010825559e-06
1.010898262e-06
1.010967357e-06
1.011033105e-06
1.011095736e-06
1.011155467e-06
1.011212472e-06
1.011266958e-06
1.011319111e-06
1.011369218e-06
1.011417782e-06
1.011466103e-06
1.011516979e-06
1.011577322e-06
1.011660365e-06
1.011788679e-06
1.011989352e-06
1.012282518e-06
1.012628209e-06
1.012819468e-06
0.09751682608
0.07162712215
0.04829265982
0.03016103699
0.01688934962
0.00701011371
0.001241216024
0.000104093599
1.41597791e-05
4.102503159e-06
2.057897497e-06
1.461467348e-06
1.241060777e-06
1.141056528e-06
1.087245775e-06
1.055131209e-06
1.035389204e-06
1.023455733e-06
1.016388952e-06
1.012393033e-06
1.010269171e-06
1.009242086e-06
1.008832997e-06
1.008757751e-06
1.008851612e-06
1.009021258e-06
1.009216391e-06
1.009412234e-06
1.009598206e-06
1.009770866e-06
1.009929958e-06
1.01007645e-06
1.010211646e-06
1.010336839e-06
1.010453185e-06
1.010561684e-06
1.010663187e-06
1.010758418e-06
1.010847994e-06
1.010932446e-06
1.011012236e-06
1.011087755e-06
1.011159356e-06
1.011227343e-06
1.011291978e-06
1.011353508e-06
1.011412142e-06
1.011468102e-06
1.011521634e-06
1.011573091e-06
1.011623159e-06
1.011673437e-06
1.011727435e-06
1.01179273e-06
1.011882876e-06
1.012017894e-06
1.012218738e-06
1.012494213e-06
1.012796847e-06
1.012935902e-06
0.1039255536
0.08014222055
0.05687335024
0.03729301342
0.02201142935
0.01039532666
0.002712365608
0.000272243628
2.923963421e-05
6.119524166e-06
2.493621682e-06
1.605067106e-06
1.30768126e-06
1.179286802e-06
1.111378525e-06
1.070807525e-06
1.045543352e-06
1.029911085e-06
1.020358924e-06
1.014729094e-06
1.011562504e-06
1.009896296e-06
1.009115779e-06
1.008839893e-06
1.008836885e-06
1.008968528e-06
1.009156036e-06
1.009358013e-06
1.009555152e-06
1.009739938e-06
1.009910473e-06
1.010067196e-06
1.010211351e-06
1.010344331e-06
1.010467442e-06
1.01058183e-06
1.010688478e-06
1.010788223e-06
1.010881776e-06
1.010969748e-06
1.011052662e-06
1.011130968e-06
1.011205059e-06
1.011275278e-06
1.011341926e-06
1.011405279e-06
1.011465581e-06
1.011523084e-06
1.01157809e-06
1.01163106e-06
1.011682897e-06
1.011735594e-06
1.011793346e-06
1.011864424e-06
1.011962506e-06
1.012105845e-06
1.012311286e-06
1.012580662e-06
1.012860866e-06
1.0129641e-06
0.1090574269
0.08756023024
0.0647688349
0.0442821633
0.02698432585
0.01358434361
0.004349726606
0.0006300287112
5.791812501e-05
9.396995899e-06
3.051035197e-06
1.76857195e-06
1.383356406e-06
1.223717957e-06
1.139945326e-06
1.089681434e-06
1.058007278e-06
1.038022564e-06
1.02549002e-06
1.017848756e-06
1.013364327e-06
1.010863349e-06
1.009576342e-06
1.009009946e-06
1.008853386e-06
1.008913824e-06
1.009075975e-06
1.009275559e-06
1.009480225e-06
1.009675811e-06
1.009857433e-06
1.010024388e-06
1.010177601e-06
1.010318479e-06
1.010448447e-06
1.010568795e-06
1.010680639e-06
1.01078493e-06
1.01088248e-06
1.010973979e-06
1.011060018e-06
1.011141104e-06
1.011217675e-06
1.011290117e-06
1.011358768e-06
1.011423936e-06
1.011485901e-06
1.011544955e-06
1.011601471e-06
1.01165605e-06
1.011709859e-06
1.011765324e-06
1.011827285e-06
1.011904579e-06
1.012010719e-06
1.012162261e-06
1.012372522e-06
1.012637864e-06
1.012900779e-06
1.012971649e-06
0.1130435013
0.09404696521
0.07196882931
0.0508720535
0.03166614546
0.01637059086
0.005916816804
0.001177597791
0.0001073695108
1.470422842e-05
3.851890534e-06
1.982854782e-06
1.476873503e-06
1.276692815e-06
1.173414423e-06
1.111717374e-06
1.072664523e-06
1.047708237e-06
1.031751313e-06
1.02176906e-06
1.015718693e-06
1.012199839e-06
1.010273455e-06
1.009323075e-06
1.00894968e-06
1.008898476e-06
1.009011429e-06
1.009195875e-06
1.009401958e-06
1.009605766e-06
1.009797567e-06
1.009974544e-06
1.010136856e-06
1.010285734e-06
1.01042266e-06
1.010549046e-06
1.010666142e-06
1.010775018e-06
1.010876584e-06
1.010971617e-06
1.011060777e-06
1.011144631e-06
1.011223668e-06
1.011298317e-06
1.011368952e-06
1.011435918e-06
1.011499531e-06
1.011560138e-06
1.011618199e-06
1.011674493e-06
1.011730481e-06
1.011789037e-06
1.011855573e-06
1.011939304e-06
1.012053309e-06
1.012212363e-06
1.012426496e-06
1.012687433e-06
1.012934229e-06
1.012973124e-06
0.1161289269
0.0996265972
0.07835290428
0.05663633013
0.03537287523
0.01802952324
0.006855822985
0.001770769169
0.0002015690013
2.597780945e-05
5.272718279e-06
2.293562729e-06
1.598025115e-06
1.341292675e-06
1.212805561e-06
1.137163057e-06
1.089494928e-06
1.058864936e-06
1.039048312e-06
1.026426859e-06
1.01859789e-06
1.013902375e-06
1.011219836e-06
1.009800376e-06
1.009148898e-06
1.008943407e-06
1.00897923e-06
1.009131725e-06
1.009330049e-06
1.009537568e-06
1.009737569e-06
1.009923819e-06
1.010095012e-06
1.010251874e-06
1.010395798e-06
1.010528268e-06
1.010650648e-06
1.010764125e-06
1.010869712e-06
1.010968271e-06
1.011060537e-06
1.011147139e-06
1.011228621e-06
1.011305452e-06
1.011378048e-06
1.011446787e-06
1.011512036e-06
1.011574207e-06
1.011633873e-06
1.011692015e-06
1.011750414e-06
1.011812376e-06
1.01188379e-06
1.011974043e-06
1.012095562e-06
1.012261275e-06
1.012478116e-06
1.012733894e-06
1.012965053e-06
1.012973118e-06
0.118334383
0.1041252045
0.08321718776
0.06040837857
0.03663660889
0.01765817788
0.006733230455
0.002069234643
0.0003399225941
4.88539008e-05
8.114372286e-06
2.816449379e-06
1.772112631e-06
1.425494485e-06
1.261290492e-06
1.167458472e-06
1.109186677e-06
1.071810845e-06
1.047511717e-06
1.031878692e-06
1.022014314e-06
1.015972306e-06
1.012419342e-06
1.01045103e-06
1.009464064e-06
1.009062549e-06
1.008991661e-06
1.009092493e-06
1.009270985e-06
1.00947547e-06
1.009680239e-06
1.009874168e-06
1.010053574e-06
1.010218172e-06
1.010369019e-06
1.010507557e-06
1.010635219e-06
1.01075329e-06
1.010862885e-06
1.010964953e-06
1.011060302e-06
1.011149627e-06
1.011233524e-06
1.011312509e-06
1.011387037e-06
1.01145753e-06
1.011524411e-06
1.011588175e-06
1.011649529e-06
1.01170968e-06
1.011770736e-06
1.011836406e-06
1.011912946e-06
1.012009723e-06
1.012138343e-06
1.012309847e-06
1.012528281e-06
1.012778199e-06
1.012994188e-06
1.012973357e-06
0.1190436851
0.1057667153