/*--------------------------------*- C++ -*----------------------------------*\
  =========                 |
  \\      /  F ield         | OpenFOAM: The Open Source CFD Toolbox
   \\    /   O peration     | Website:  https://openfoam.org
    \\  /    A nd           | Version:  10
     \\/     M anipulation  |
\*---------------------------------------------------------------------------*/
FoamFile
{
    format      ascii;
    class       volScalarField;
    location    "0.0250188088";
    object      HCCOH_0;
}
// * * * * * * * * * * * * * * * * * * * * * * * * * * * * * * * * * * * * * //

dimensions      [0 0 0 0 0 0 0];

internalField   nonuniform List<scalar> 
5170
(
0
0
0
0
0
0
0
0
0
0
0
0
0
0
0
0
0
0
0
0
0
0
0
0
0
0
0
0
0
0
0
0
0
0
0
0
0
0
0
0
0
0
0
0
0
0
0
0
0
0
0
0
0
0
0
0
0
0
0
0
0
0
0
0
0
0
0
0
0
0
0
0
0
0
0
0
0
0
0
0
0
0
0
0
0
0
0
0
0
0
0
0
9.470660191e-17
9.7914811e-16
4.085385442e-15
1.535464957e-15
8.750498153e-15
7.010448879e-14
4.928446189e-13
2.353407218e-12
1.031364915e-15
2.40547946e-17
0
0
0
5.881836671e-16
0
0
3.149850198e-17
0
1.220930766e-16
5.994794224e-16
0
0
2.220659284e-18
7.68918563e-17
8.554141095e-16
0
0
0
3.602717505e-17
8.670009501e-16
0
0
3.721273173e-17
0
0
0
0
0
0
0
0
0
0
0
4.14249393e-11
0
0
0
6.191741371e-10
0
0
2.579179128e-10
0
3.958556816e-10
1.030380749e-09
8.503570092e-10
5.085120219e-10
0
3.017124212e-10
1.40616686e-09
1.195019042e-09
0
3.220921847e-11
2.660049514e-10
5.727861773e-10
4.449935854e-10
8.628261041e-12
1.306378315e-10
3.514318998e-10
5.122474937e-10
3.124166711e-10
8.612302125e-11
2.498149691e-10
4.196351871e-10
5.217927229e-10
3.09254038e-10
2.500442627e-10
3.568535349e-10
4.625303762e-10
5.544227471e-10
3.833446282e-10
2.955036911e-10
3.244493724e-10
4.994303613e-10
4.975223644e-10
3.688466213e-10
3.144155732e-10
2.967397272e-10
4.813264386e-10
4.668292073e-10
3.592994935e-10
2.728316281e-10
2.756999339e-10
4.552314303e-10
4.082752978e-10
3.142378907e-10
2.395484159e-10
2.008485661e-10
6.677391662e-10
4.750757329e-10
3.088752282e-10
2.340580485e-10
1.198567643e-10
2.620913761e-08
1.323002409e-08
1.688902732e-09
2.715205672e-10
2.051410461e-11
6.535852765e-14
4.948731861e-13
7.415251735e-12
1.071708066e-10
1.373248152e-09
1.844258243e-12
1.418235639e-11
2.034770178e-10
2.659997894e-09
2.849643561e-08
1.095277449e-11
7.634750106e-11
9.02424294e-10
8.83316498e-09
6.03674431e-08
4.215392339e-11
2.658324172e-10
2.658582895e-09
2.07061882e-08
1.035530909e-07
1.350171841e-10
7.927173315e-10
6.897328414e-09
4.386553847e-08
1.779887367e-07
3.853625249e-10
2.117948006e-09
1.581088009e-08
8.168627306e-08
2.74805811e-07
9.974048763e-10
5.047120051e-09
3.150097628e-08
1.313413791e-07
3.679727461e-07
2.352608988e-09
1.071885753e-08
5.495711145e-08
1.858783381e-07
4.398329053e-07
5.144380951e-09
2.072602313e-08
8.644703245e-08
2.421881231e-07
5.033592482e-07
1.055664983e-08
3.697104679e-08
1.262565552e-07
3.031436642e-07
5.757152806e-07
2.064665564e-08
6.202347636e-08
1.754531463e-07
3.72240875e-07
6.613059071e-07
3.949621889e-08
9.82517286e-08
2.339602617e-07
4.49206806e-07
7.517299304e-07
7.2970642e-08
1.473976281e-07
3.018759267e-07
5.320836782e-07
8.421538904e-07
1.226646725e-07
2.096188139e-07
3.786263755e-07
6.195731088e-07
9.328015455e-07
1.961065607e-07
2.889286908e-07
4.665596531e-07
7.138455683e-07
1.028142827e-06
2.915342428e-07
3.853515522e-07
5.667187785e-07
8.16700121e-07
1.129609995e-06
4.11089461e-07
5.028342583e-07
6.826104934e-07
9.292891376e-07
1.234760759e-06
5.543744088e-07
6.391395456e-07
8.084803421e-07
1.041959377e-06
1.32990985e-06
6.967089088e-07
7.699023817e-07
9.177490476e-07
1.120190278e-06
1.364401519e-06
8.159737986e-07
8.728719654e-07
9.854835702e-07
1.13246227e-06
1.296393946e-06
8.888498356e-07
9.235508616e-07
9.889010207e-07
1.066265627e-06
1.139759456e-06
8.826215891e-07
8.94485588e-07
9.151475617e-07
9.352349189e-07
9.463919245e-07
7.872680759e-07
7.874654205e-07
7.857151479e-07
7.78889383e-07
7.641069908e-07
6.514268513e-07
6.480434426e-07
6.396323339e-07
6.255017752e-07
6.051067075e-07
5.119043824e-07
5.082303876e-07
4.996698707e-07
4.863731004e-07
4.686517057e-07
3.855038816e-07
3.825895243e-07
3.759716836e-07
3.65866389e-07
3.525879672e-07
2.854910197e-07
2.834097203e-07
2.78634764e-07
2.713597525e-07
2.618628373e-07
2.063504992e-07
2.049200766e-07
2.016315119e-07
1.966254981e-07
1.901088657e-07
1.45976081e-07
1.450279545e-07
1.428424016e-07
1.395127077e-07
1.351798415e-07
1.013365349e-07
1.007263357e-07
9.93149226e-08
9.716063335e-08
9.435468336e-08
6.906817576e-08
6.868546876e-08
6.779649028e-08
6.643588961e-08
6.466052896e-08
4.610376451e-08
4.586982736e-08
4.53232471e-08
4.448364393e-08
4.338557794e-08
2.999847297e-08
2.985953916e-08
2.953241653e-08
2.902761805e-08
2.836570458e-08
1.89315592e-08
1.88518569e-08
1.866226297e-08
1.836807243e-08
1.798125904e-08
1.154469674e-08
1.150075997e-08
1.139490873e-08
1.122958346e-08
1.101157658e-08
6.789006657e-09
6.765831898e-09
6.70909547e-09
6.61979818e-09
6.501685196e-09
3.84599017e-09
3.834319641e-09
3.805182456e-09
3.758908083e-09
3.697496586e-09
2.096764321e-09
2.091176775e-09
2.076871721e-09
2.053905565e-09
2.023314616e-09
1.098391962e-09
1.095863034e-09
1.089174777e-09
1.07829314e-09
1.063737771e-09
5.517153259e-10
5.506453036e-10
5.476861927e-10
5.427890497e-10
5.362057492e-10
2.650876233e-10
2.646711542e-10
2.634431748e-10
2.613645002e-10
2.585527876e-10
1.215580143e-10
1.214133534e-10
1.209412757e-10
1.20116533e-10
1.18991934e-10
5.30934358e-11
5.305124273e-11
5.288621215e-11
5.258400495e-11
5.216729762e-11
2.205428998e-11
2.204589805e-11
2.199515974e-11
2.189472505e-11
2.175390037e-11
8.702948297e-12
8.703392748e-12
8.690705945e-12
8.661418172e-12
8.619167851e-12
3.260287567e-12
3.261924188e-12
3.260037131e-12
3.253111818e-12
3.242504423e-12
1.159037589e-12
1.160161933e-12
1.160551622e-12
1.159589935e-12
1.157757973e-12
3.909639249e-13
3.915331943e-13
3.920360443e-13
3.92238097e-13
3.923019047e-13
1.251400952e-13
1.253851158e-13
1.256692065e-13
1.259087693e-13
1.261561011e-13
3.798779991e-14
3.808194973e-14
3.820675165e-14
3.833427933e-14
3.848056041e-14
1.059103077e-14
1.061838038e-14
1.066055995e-14
1.070887855e-14
1.076746469e-14
2.892335606e-15
2.902297186e-15
2.917361495e-15
2.935073684e-15
2.956690436e-15
7.506420448e-16
7.536861534e-16
7.584770095e-16
7.643194547e-16
7.715578916e-16
1.850885554e-16
1.859506377e-16
1.873518673e-16
1.891075564e-16
1.913046526e-16
4.334567536e-17
4.35742737e-17
4.395528509e-17
4.444234469e-17
4.505632679e-17
9.630925877e-18
9.687896274e-18
9.784751781e-18
9.910504586e-18
1.006994746e-17
2.024449874e-18
2.037801157e-18
2.060868952e-18
2.091193533e-18
2.129837885e-18
3.990768085e-19
4.02007432e-19
4.071347657e-19
4.13943166e-19
4.226659469e-19
7.130127451e-20
7.191645176e-20
7.301170086e-20
7.448822749e-20
7.64025359e-20
1.135958091e-20
1.148620303e-20
1.171694257e-20
1.203201853e-20
1.24385613e-20
1.601229578e-21
1.624306548e-21
1.666794029e-21
1.724796608e-21
1.799093352e-21
1.986958189e-22
2.019670365e-22
2.079250788e-22
2.159023413e-22
2.257690732e-22
1.707090415e-23
1.728814587e-23
1.754926043e-23
1.766919657e-23
1.733542435e-23
0
0
0
0
0
0
0
0
0
0
0
0
0
0
0
0
0
0
0
0
0
0
0
0
0
0
0
0
0
0
0
0
0
0
0
4.853596812e-09
1.206058772e-07
1.690015421e-07
2.420008031e-07
3.91642919e-07
5.453451355e-07
6.46099504e-07
6.910436098e-07
7.417356137e-07
8.206738564e-07
9.189446922e-07
1.013213051e-06
1.101003307e-06
1.187263404e-06
1.2796342e-06
1.376983491e-06
1.473220942e-06
1.554088299e-06
1.550843847e-06
1.409042569e-06
1.180130944e-06
9.458138028e-07
7.493085181e-07
5.886504684e-07
4.551932874e-07
3.426365575e-07
2.548704818e-07
1.85364649e-07
1.320533037e-07
9.234513146e-08
6.339846417e-08
4.261202622e-08
2.790511567e-08
1.771651204e-08
1.086552072e-08
6.424642414e-09
3.658752052e-09
2.004808961e-09
1.05540065e-09
5.327030517e-10
2.572063721e-10
1.185344769e-10
5.204051118e-11
2.173305176e-11
8.62411484e-12
3.249526334e-12
1.162173607e-12
3.944658445e-13
1.27073023e-13
3.882925505e-14
1.088008886e-14
2.993775514e-15
7.827947973e-16
1.944797253e-16
4.589773257e-17
1.027965642e-17
2.179070875e-18
4.335257661e-19
7.872519716e-20
1.290421749e-20
1.881022807e-21
2.364555853e-22
1.718139379e-23
0
0
0
0
0
0
0
1.134548694e-08
7.285356877e-09
1.231174906e-09
3.458623947e-09
5.107275452e-10
3.715259058e-07
2.031064368e-06
1.171597388e-07
1.035997348e-08
3.042401101e-09
3.918105047e-07
9.509632207e-07
1.098810861e-07
7.14158203e-09
2.098929551e-09
5.257198519e-07
1.440210096e-06
4.556670797e-06
3.445530358e-07
2.825858798e-08
8.43901666e-07
2.493624169e-06
7.653738113e-06
7.758513216e-07
5.684064872e-08
1.080583641e-06
2.614538317e-06
5.88448776e-06
7.554421428e-07
7.051890468e-08
1.152213209e-06
2.231646203e-06
3.727187478e-06
5.827897408e-07
6.851461972e-08
1.116924521e-06
1.804974998e-06
2.459776042e-06
2.208690369e-06
2.825363817e-07
1.143875826e-06
1.892511252e-06
3.216078474e-06
7.255783848e-06
1.027783792e-06
1.237123486e-06
2.104331812e-06
3.674192437e-06
8.234501646e-06
1.369712104e-06
1.354812392e-06
2.264349937e-06
3.771249356e-06
7.535673302e-06
1.39524044e-06
1.447063422e-06
2.289774361e-06
3.502419605e-06
5.987668969e-06
1.535162962e-06
1.522503072e-06
2.302517407e-06
3.370855174e-06
5.541599696e-06
5.552624286e-06
1.597236397e-06
2.342560585e-06
3.369405749e-06
5.46116817e-06
8.164841127e-06
1.68186871e-06
2.41302119e-06
3.431089288e-06
5.458425432e-06
9.003840978e-06
1.770632807e-06
2.48010021e-06
3.447902536e-06
5.268089378e-06
8.558890541e-06
1.850400386e-06
2.515897487e-06
3.393441559e-06
4.957448223e-06
7.644244866e-06
1.908147e-06
2.535008403e-06
3.38713402e-06
4.972862071e-06
7.701717051e-06
1.84915837e-06
2.379803427e-06
3.172069671e-06
4.820027195e-06
7.170092434e-06
1.586862166e-06
1.826949324e-06
2.083421861e-06
2.49901177e-06
2.303990928e-06
1.245145787e-06
1.271013551e-06
1.21830549e-06
1.096487124e-06
8.538968467e-07
9.495266478e-07
9.001870293e-07
7.977834307e-07
6.568470036e-07
4.971769088e-07
7.319514766e-07
6.730545428e-07
5.877750206e-07
4.887155483e-07
3.885897414e-07
5.684624655e-07
5.190973326e-07
4.562238853e-07
3.870385915e-07
3.184322506e-07
4.38719781e-07
4.015954148e-07
3.561241209e-07
3.068800384e-07
2.578338498e-07
3.306424885e-07
3.041632262e-07
2.720740847e-07
2.373555085e-07
2.025279645e-07
2.467028958e-07
2.283066817e-07
2.058279824e-07
1.813377046e-07
1.565584967e-07
1.80019745e-07
1.675969432e-07
1.521851422e-07
1.352244067e-07
1.17903027e-07
1.286627465e-07
1.204827653e-07
1.101488034e-07
9.864359357e-08
8.677629618e-08
9.025097164e-08
8.498615182e-08
7.820145928e-08
7.05508482e-08
6.257418682e-08
6.21421342e-08
5.88280689e-08
5.446126329e-08
4.9467535e-08
4.420049339e-08
4.188666561e-08
3.985108324e-08
3.709804355e-08
3.390063055e-08
3.048720622e-08
2.750795574e-08
2.629434182e-08
2.460052031e-08
2.259943594e-08
2.043660011e-08
1.751423963e-08
1.681656522e-08
1.58050336e-08
1.458738532e-08
1.325467436e-08
1.077222571e-08
1.038778076e-08
9.804345678e-09
9.087462219e-09
8.292678805e-09
6.38758042e-09
6.185349844e-09
5.861321005e-09
5.454185536e-09
4.99679026e-09
3.647843125e-09
3.546629442e-09
3.373602979e-09
3.150864602e-09
2.897188115e-09
2.004384297e-09
1.956414171e-09
1.867689466e-09
1.750413988e-09
1.61495103e-09
1.058122008e-09
1.036771634e-09
9.9317439e-10
9.338397204e-10
8.642889026e-10
5.355994844e-10
5.268033998e-10
5.063429212e-10
4.775659583e-10
4.433070516e-10
2.593681683e-10
2.560977053e-10
2.469656585e-10
2.336276316e-10
2.174822481e-10
1.198984693e-10
1.18856392e-10
1.149984819e-10
1.091093137e-10
1.018500921e-10
5.280833207e-11
5.2563276e-11
5.102836284e-11
4.855874025e-11
4.545297895e-11
2.212739911e-11
2.211754959e-11
2.154551965e-11
2.056445782e-11
1.93027992e-11
8.81100067e-12
8.845318047e-12
8.646891695e-12
8.278504207e-12
7.792681357e-12
3.331794657e-12
3.35968752e-12
3.296161515e-12
3.165649135e-12
2.988544243e-12
1.195961217e-12
1.211479012e-12
1.192953446e-12
1.149402436e-12
1.0883366e-12
4.074533525e-13
4.14662174e-13
4.09856153e-13
3.961911588e-13
3.762896193e-13
1.317569377e-13
1.347229239e-13
1.336705528e-13
1.296467484e-13
1.235195852e-13
4.041541468e-14
4.15228613e-14
4.135770841e-14
4.024890483e-14
3.846858211e-14
1.136079423e-14
1.172282068e-14
1.171820266e-14
1.144011777e-14
1.096573129e-14
3.139877294e-15
3.256263065e-15
3.267855358e-15
3.201386806e-15
3.078855054e-15
8.244015557e-16
8.592978036e-16
8.658525989e-16
8.512648044e-16
8.21442523e-16
2.056675206e-16
2.154692298e-16
2.180037437e-16
2.151057421e-16
2.082775037e-16
4.874325093e-17
5.1330402e-17
5.214967334e-17
5.16442617e-17
5.017691955e-17
1.096455935e-17
1.160778972e-17
1.184280794e-17
1.177136423e-17
1.147647637e-17
2.335079249e-18
2.485778679e-18
2.547061489e-18
2.541120855e-18
2.486030214e-18
4.67045374e-19
5.002693648e-19
5.149996372e-19
5.15844454e-19
5.065484133e-19
8.558293209e-20
9.26544054e-20
9.615396445e-20
9.710668206e-20
9.58806314e-20
1.422647378e-20
1.563242718e-20
1.63889192e-20
1.663397841e-20
1.648538384e-20
2.106114563e-21
2.349720012e-21
2.478524922e-21
2.510998306e-21
2.458943274e-21
2.667354356e-22
2.949666557e-22
3.009014144e-22
2.84068432e-22
2.358684244e-22
1.758609304e-23
3.899841195e-24
0
0
0
0
0
0
0
0
0
0
0
0
0
0
0
0
0
0
0
0
0
0
0
0
0
0
0
0
0
0
0
0
0
0
0
0
0
0
6.529620253e-11
4.003859647e-12
2.537729671e-13
3.51053024e-14
8.636120356e-15
2.679603145e-15
8.753671853e-16
2.843074129e-16
8.974192066e-17
2.704726223e-17
7.544017364e-18
1.77615956e-18
2.293659756e-19
0
0
0
0
0
0
0
0
0
0
0
0
0
0
0
0
0
0
0
0
0
0
0
0
0
0
0
0
0
0
0
0
0
0
0
0
0
0
0
0
0
0
0
0
0
0
0
5.45134973e-10
4.243596475e-11
2.307687313e-12
2.065606395e-13
3.693907217e-14
1.011443252e-14
3.38369585e-15
1.213199823e-15
4.355118675e-16
1.508580541e-16
4.915057913e-17
1.462648761e-17
3.74639903e-18
6.870200445e-19
7.679403799e-21
0
0
0
0
0
0
0
0
0
0
0
0
0
0
0
0
0
0
0
0
0
0
0
0
0
0
0
0
0
0
0
0
0
0
0
0
0
0
0
0
0
0
0
0
0
7.653869689e-10
1.011781705e-10
6.687454017e-12
6.180082274e-13
1.102055154e-13
3.191016085e-14
1.194782022e-14
4.912239696e-15
2.013884941e-15
7.877947652e-16
2.866723782e-16
9.536545074e-17
2.851806763e-17
7.419288742e-18
1.512783166e-18
1.314608286e-19
0
0
0
0
0
0
0
0
0
0
0
0
0
0
0
0
0
0
0
0
0
0
0
0
0
0
0
0
0
0
0
0
0
0
0
0
0
0
0
0
0
0
0
0
8.490708268e-09
1.657990925e-09
1.339973076e-10
7.759593644e-12
9.115611341e-13
2.12202163e-13
7.316774623e-14
2.932328624e-14
1.208114628e-14
4.835710945e-15
1.819875172e-15
6.307183248e-16
1.985047196e-16
5.597955021e-17
1.383007739e-17
2.790593452e-18
3.219737393e-19
0
0
0
0
0
0
0
0
0
0
0
0
0
0
0
0
0
0
0
0
0
0
0
0
0
0
0
0
0
0
0
0
0
0
0
0
0
0
0
0
0
0
0
1.655002769e-08
5.143463184e-09
9.433271893e-10
8.214013214e-11
7.872051799e-12
1.458446269e-12
4.335890334e-13
1.59725025e-13
6.269348508e-14
2.444231705e-14
9.109269388e-15
3.168289006e-15
1.014295072e-15
2.940570391e-16
7.594435177e-17
1.706009266e-17
3.068446374e-18
3.214511766e-19
0
0
0
0
0
0
0
0
0
0
0
0
0
0
0
0
0
0
0
0
0
0
0
0
0
0
0
0
0
0
0
0
0
0
0
0
0
0
0
0
0
0
1.391338549e-08
6.615425013e-09
2.256674495e-09
4.366664523e-10
4.437470432e-11
6.255743917e-12
1.540972493e-12
5.180049246e-13
1.949746271e-13
7.443569383e-14
2.747248838e-14
9.546426977e-15
3.068240989e-15
8.992412937e-16
2.371396973e-16
5.561359966e-17
1.109160729e-17
1.736092465e-18
9.683263206e-20
0
0
0
0
0
0
0
0
0
0
0
0
0
0
0
0
0
0
0
0
0
0
0
0
0
0
0
0
0
0
0
0
0
0
0
0
0
0
0
0
0
8.805077899e-09
4.934595732e-09
2.765739965e-09
1.084077235e-09
2.077372996e-10
2.431737663e-11
4.578346995e-12
1.350061611e-12
4.847691858e-13
1.819575458e-13
6.680755443e-14
2.321118362e-14
7.486497665e-15
2.214067454e-15
5.947183006e-16
1.434777128e-16
3.011416412e-17
5.406032689e-18
6.521464276e-19
6.879951146e-22
0
0
0
0
0
0
0
0
0
0
0
0
0
0
0
0
0
0
0
0
0
0
0
0
0
0
0
0
0
0
0
0
0
0
0
0
0
0
0
0
2.17796924e-08
6.340213482e-09
3.773038533e-09
2.024621842e-09
7.413448686e-10
1.111677624e-10
1.519464901e-11
3.577215009e-12
1.154944595e-12
4.147149309e-13
1.489634706e-13
5.107316741e-14
1.632838137e-14
4.805470133e-15
1.291972249e-15
3.149609746e-16
6.794552281e-17
1.310411794e-17
2.003882236e-18
1.258578633e-19
0
0
0
0
0
0
0
0
0
0
0
0
0
0
0
0
0
0
0
0
0
0
0
0
0
0
0
0
0
0
0
0
0
0
0
0
0
0
0
0
9.221785193e-08
1.510089871e-08
7.241100249e-09
4.160168207e-09
2.175386098e-09
5.704467647e-10
6.610137593e-11
1.086796297e-11
2.886844844e-12
9.393963277e-13
3.19183358e-13
1.054743542e-13
3.283554624e-14
9.481563847e-15
2.520666206e-15
6.136653134e-16
1.340366582e-16
2.694111018e-17
4.63117572e-18
5.237012134e-19
0
0
0
0
0
0
0
0
0
0
0
0
0
0
0
0
0
0
0
0
0
0
0
0
0
0
0
0
0
0
0
0
0
0
0
0
0
0
0
0
1.666756919e-07
1.980838022e-08
8.600471881e-09
5.653003571e-09
3.670824339e-09
1.696931065e-09
2.808917969e-10
3.326896349e-11
6.949443459e-12
1.99749787e-12
6.338699125e-13
2.002658639e-13
6.034203695e-14
1.702134436e-14
4.463193926e-15
1.084034312e-15
2.394250845e-16
4.977671221e-17
9.240512459e-18
1.336022802e-18
5.436412592e-20
0
0
0
0
0
0
0
0
0
0
0
0
0
0
0
0
0
0
0
0
0
0
0
0
0
0
0
0
0
0
0
0
0
0
0
0
0
0
0
2.045463164e-07
1.992432661e-08
7.28616121e-09
5.646961191e-09
4.513237615e-09
2.941801899e-09
8.117160833e-10
9.926584542e-11
1.615094826e-11
3.956285721e-12
1.144414604e-12
3.40895884e-13
9.870504666e-14
2.716166345e-14
7.051976423e-15
1.722748983e-15
3.886185792e-16
8.411505108e-17
1.669254487e-17
2.797279415e-18
2.639848286e-19
0
0
0
0
0
0
0
0
0
0
0
0
0
0
0
0
0
0
0
0
0
0
0
0
0
0
0
0
0
0
0
0
0
0
0
0
0
0
0
1.954293867e-07
2.18632198e-08
5.645373847e-09
4.867763806e-09
4.808778766e-09
3.944541107e-09
1.785678077e-09
2.758406385e-10
3.922457187e-11
7.808269104e-12
1.967666598e-12
5.37378666e-13
1.470306223e-13
3.916447149e-14
1.007273078e-14
2.491883604e-15
5.80125796e-16
1.317849148e-16
2.787433936e-17
5.190714542e-18
6.875858812e-19
4.367168254e-21
0
0
0
0
0
0
0
0
0
0
0
0
0
0
0
0
0
0
0
0
0
0
0
0
0
0
0
0
0
0
0
0
0
0
0
0
0
0
7.89435032e-07
9.620572358e-08
1.306631902e-08
6.508080625e-09
6.192605348e-09
5.528322489e-09
3.257613386e-09
7.342412487e-10
9.465899108e-11
1.554315471e-11
3.237919724e-12
7.789123384e-13
1.972148489e-13
5.054815836e-14
1.293869414e-14
3.274998327e-15
7.955499209e-16
1.908134539e-16
4.294908271e-17
8.679584068e-18
1.383352032e-18
7.659187418e-20
0
0
0
0
0
0
0
0
0
0
0
0
0
0
0
0
0
0
0
0
0
0
0
0
0
0
0
0
0
0
0
0
0
0
0
0
0
0
1.304838363e-06
1.836629059e-07
2.370458982e-08
7.685633009e-09
7.637063602e-09
7.559038716e-09
5.316210751e-09
1.717685212e-09
2.210696577e-10
3.160971156e-11
5.350730826e-12
1.09608042e-12
2.507910754e-13
6.120053053e-14
1.558902113e-14
4.04977296e-15
1.026576788e-15
2.58310255e-16
6.113842902e-17
1.312948641e-17
2.344132641e-18
2.295546514e-19
0
0
0
0
0
0
0
0
0
0
0
0
0
0
0
0
0
0
0
0
0
0
0
0
0
0
0
0
0
0
0
0
0
0
0
0
0
0
1.593290506e-06
2.579566036e-07
3.52315694e-08
8.430186985e-09
8.828841844e-09
9.782960791e-09
7.600818928e-09
3.361022704e-09
5.259884744e-10
6.962836251e-11
9.098295733e-12
1.484702561e-12
2.97496104e-13
6.893103531e-14
1.761813492e-14
4.719915089e-15
1.244894413e-15
3.253224059e-16
7.992484516e-17
1.79211675e-17
3.43854224e-18
4.307152346e-19
1.857064495e-23
0
0
0
0
0
0
0
0
0
0
0
0
0
0
0
0
0
0
0
0
0
0
0
0
0
0
0
0
0
0
0
0
0
0
0
0
0
1.672942594e-06
2.934240632e-07
4.469821228e-08
8.863211191e-09
1.029566728e-08
1.251256373e-08
9.987079107e-09
5.26500407e-09
1.142502126e-09
1.577397742e-10
1.620419104e-11
1.975153827e-12
3.3401255e-13
7.391676649e-14
1.919325802e-14
5.303181372e-15
1.442404132e-15
3.863299358e-16
9.726727167e-17
2.24576206e-17
4.495942948e-18
6.378993014e-19
6.054215588e-21
0
0
0
0
0
0
0
0
0
0
0
0
0
0
0
0
0
0
0
0
0
0
0
0
0
0
0
0
0
0
0
0
0
0
0
0
0
1.691727999e-06
3.004297844e-07
5.136238014e-08
1.04780521e-08
1.449953878e-08
1.657131751e-08
1.244353925e-08
6.763868679e-09
2.14842094e-09
3.381100871e-10
3.015872476e-11
2.773872983e-12
3.979565079e-13
8.476319267e-14
2.206831414e-14
6.135756102e-15
1.684177072e-15
4.546362165e-16
1.152576848e-16
2.680702286e-17
5.463441953e-18
8.274829126e-19
2.115517396e-20
0
0
0
0
0
0
0
0
0
0
0
0
0
0
0
0
0
0
0
0
0
0
0
0
0
0
0
0
0
0
0
0
0
0
0
0
0
1.679299297e-06
3.053366492e-07
4.821404413e-08
2.234767349e-08
2.4301544e-08
2.159238342e-08
1.476158196e-08
7.96041962e-09
3.108758538e-09
6.917830809e-10
7.010434752e-11
5.578768681e-12
6.632999431e-13
1.232671608e-13
2.966421658e-14
7.881967832e-15
2.10209011e-15
5.553085415e-16
1.386987436e-16
3.197677549e-17
6.528866399e-18
1.026090343e-18
4.385505835e-20
0
0
0
0
0
0
0
0
0
0
0
0
0
0
0
0
0
0
0
0
0
0
0
0
0
0
0
0
0
0
0
0
0
0
0
0
0
1.495422809e-06
2.774349304e-07
4.042598544e-08
3.446506093e-08
3.49744937e-08
2.66686437e-08
1.68571112e-08
9.038164272e-09
3.989849787e-09
1.289394804e-09
2.383561533e-10
2.334724142e-11
2.083806952e-12
2.666392351e-13
4.996381093e-14
1.166985691e-14
2.909847542e-15
7.382722245e-16
1.795947752e-16
4.069100269e-17
8.262667562e-18
1.338004194e-18
8.259556459e-20
0
0
0
0
0
0
0
0
0
0
0
0
0
0
0
0
0
0
0
0
0
0
0
0
0
0
0
0
0
0
0
0
0
0
0
0
0
5.95956289e-07
1.131497769e-07
8.123261489e-08
6.461633307e-08
4.727888066e-08
3.151063447e-08
1.905607466e-08
1.035915491e-08
4.975413133e-09
2.031991903e-09
6.18886638e-10
1.090797464e-10
1.058538448e-11
9.474823879e-13
1.188347711e-13
2.135042545e-14
4.670604471e-15
1.108265025e-15
2.597356887e-16
5.75726958e-17
1.161181211e-17
1.943205059e-18
1.673398176e-19
0
0
0
0
0
0
0
0
0
0
0
0
0
0
0
0
0
0
0
0
0
0
0
0
0
0
0
0
0
0
0
0
0
0
0
0
0
3.822049451e-07
1.954602846e-07
1.268397942e-07
8.495606476e-08
5.624566581e-08
3.577552757e-08
2.14281267e-08
1.192802941e-08
6.094655193e-09
2.802952576e-09
1.11083225e-09
3.308235223e-10
5.708866786e-11
5.376460856e-12
4.629483396e-13
5.518033346e-14
9.254821125e-15
1.923551196e-15
4.231588243e-16
9.096309681e-17
1.818082949e-17
3.139030611e-18
3.48841944e-19
0
0
0
0
0
0
0
0
0
0
0
0
0
0
0
0
0
0
0
0
0
0
0
0
0
0
0
0
0
0
0
0
0
0
0
0
0
3.265605892e-07
2.135254454e-07
1.418732709e-07
9.427486031e-08
6.166180066e-08
3.903457151e-08
2.362581628e-08
1.354493746e-08
7.287322188e-09
3.630025149e-09
1.635481578e-09
6.359749805e-10
1.85633654e-10
3.102909657e-11
2.764501893e-12
2.239659167e-13
2.484463158e-14
3.949247482e-15
7.640523114e-16
1.551323379e-16
3.038803508e-17
5.352171449e-18
7.011782875e-19
6.9317935e-21
0
0
0
0
0
0
0
0
0
0
0
0
0
0
0
0
0
0
0
0
0
0
0
0
0
0
0
0
0
0
0
0
0
0
0
0
2.878161557e-07
2.03166703e-07
1.407868975e-07
9.573855653e-08
6.35425407e-08
4.085033256e-08
2.527005109e-08
1.495216499e-08
8.405729266e-09
4.44593355e-09
2.177031122e-09
9.604616512e-10
3.635630343e-10
1.024179081e-10
1.618934546e-11
1.326159999e-12
9.872375701e-14
1.040592223e-14
1.552366757e-15
2.797707731e-16
5.233904157e-17
9.228083904e-18
1.332520498e-18
6.554493716e-20
0
0
0
0
0
0
0
0
0
0
0
0
0
0
0
0
0
0
0
0
0
0
0
0
0
0
0
0
0
0
0
0
0
0
0
0
2.480964251e-07
1.830807063e-07
1.312340729e-07
9.154680918e-08
6.210167685e-08
4.08143521e-08
2.588902728e-08
1.579057851e-08
9.21580168e-09
5.108311467e-09
2.657501568e-09
1.273329953e-09
5.452258006e-10
1.982337447e-10
5.289266381e-11
7.722990521e-12
5.653340366e-13
3.939652318e-14
3.936637218e-15
5.551081173e-16
9.346665697e-17
1.602605269e-17
2.434493371e-18
2.053280554e-19
0
0
0
0
0
0
0
0
0
0
0
0
0
0
0
0
0
0
0
0
0
0
0
0
0
0
0
0
0
0
0
0
0
0
0
0
2.063999897e-07
1.564919815e-07
1.150199542e-07
8.253227619e-08
5.727231061e-08
3.852382485e-08
2.50707431e-08
1.573775672e-08
9.493686565e-09
5.47055729e-09
2.983198342e-09
1.51807356e-09
7.05833534e-10
2.901479735e-10
9.980084456e-11
2.465070586e-11
3.233954555e-12
2.140196568e-13
1.393099805e-14
1.3303927e-15
1.778113169e-16
2.781455104e-17
4.231524047e-18
4.48526363e-19
9.883392011e-23
0
0
0
0
0
0
0
0
0
0
0
0
0
0
0
0
0
0
0
0
0
0
0
0
0
0
0
0
0
0
0
0
0
0
0
1.655265277e-07
1.289374695e-07
9.752937873e-08
7.161802914e-08
5.096964304e-08
3.509721859e-08
2.336564196e-08
1.505378841e-08
9.346240885e-09
5.56335997e-09
3.150735243e-09
1.679043206e-09
8.287864553e-10
3.702489547e-10
1.444000076e-10
4.6268951e-11
1.03255733e-11
1.17896953e-12
6.945288502e-14
4.274423897e-15
3.925241684e-16
4.955801876e-17
7.015933741e-18
8.116057415e-19
1.409522831e-20
0
0
0
0
0
0
0
0
0
0
0
0
0
0
0
0
0
0
0
0
0
0
0
0
0
0
0
0
0
0
0
0
0
0
0
1.299302697e-07
1.030851516e-07
7.941008069e-08
5.943624797e-08
4.322331804e-08
3.050253757e-08
2.083613531e-08
1.375518674e-08
8.752803381e-09
5.35423953e-09
3.12750176e-09
1.728538154e-09
8.927896866e-10
4.235162666e-10
1.798650526e-10
6.57187491e-11
1.929112071e-11
3.776469036e-12
3.591614682e-13
1.860033614e-14
1.088492591e-15
9.616907518e-17
1.127932118e-17
1.276067717e-18
5.196499285e-20
0
0
0
0
0
0
0
0
0
0
0
0
0
0
0
0
0
0
0
0
0
0
0
0
0
0
0
0
0
0
0
0
0
0
0
9.909279483e-08
7.981122852e-08
6.248131153e-08
4.757961423e-08
3.524686881e-08
2.538523642e-08
1.774562852e-08
1.200229381e-08
7.828902378e-09
4.901828175e-09
2.936440535e-09
1.670479383e-09
8.933882922e-10
4.430581859e-10
1.998504259e-10
7.967762663e-11
2.685655062e-11
7.071153594e-12
1.173968539e-12
8.979942838e-14
4.131818204e-15
2.329682677e-16
1.96484728e-17
1.931366564e-18
1.046946869e-19
0
0
0
0
0
0
0
0
0
0
0
0
0
0
0
0
0
0
0
0
0
0
0
0
0
0
0
0
0
0
0
0
0
0
0
7.375467093e-08
6.019980462e-08
4.781397306e-08
3.697766599e-08
2.784566054e-08
2.040446246e-08
1.452827254e-08
1.002632065e-08
6.680191883e-09
4.278821207e-09
2.620429939e-09
1.524943589e-09
8.377592618e-10
4.296204907e-10
2.025226425e-10
8.586954975e-11
3.171251097e-11
9.710441369e-12
2.250661049e-12
3.106033691e-13
1.923420832e-14
8.209428637e-16
4.542526433e-17
3.406558054e-18
2.066550439e-19
0
0
0
0
0
0
0
0
0
0
0
0
0
0
0
0
0
0
0
0
0
0
0
0
0
0
0
0
0
0
0
0
0
0
0
5.372682359e-08
4.437625013e-08
3.569593533e-08
2.797631824e-08
2.136049506e-08
1.587661656e-08
1.147128438e-08
8.039417751e-09
5.447383848e-09
3.552180472e-09
2.21827721e-09
1.318425234e-09
7.394803256e-10
3.89070907e-10
1.896135567e-10
8.412630934e-11
3.316078495e-11
1.120482068e-11
3.073732046e-12
6.141896499e-13
6.911097416e-14
3.516764781e-15
1.407910357e-16
7.284459407e-18
4.097516464e-19
0
0
0
0
0
0
0
0
0
0
0
0
0
0
0
0
0
0
0
0
0
0
0
0
0
0
0
0
0
0
0
0
0
0
0
3.829291838e-08
3.195418557e-08
2.597993982e-08
2.058593939e-08
1.589334307e-08
1.194589632e-08
8.729204727e-09
6.188709416e-09
4.245268463e-09
2.807013734e-09
1.77978417e-09
1.076011671e-09
6.158823104e-10
3.303535417e-10
1.650549717e-10
7.573012152e-11
3.129739708e-11
1.133951264e-11
3.461813215e-12
8.385081213e-13
1.41079366e-13
1.250782186e-14
5.174286125e-16
1.855203858e-17
8.18624516e-19
4.94652319e-22
0
0
0
0
0
0
0
0
0
0
0
0
0
0
0
0
0
0
0
0
0
0
0
0
0
0
0
0
0
0
0
0
0
0
2.661572345e-08
2.240002048e-08
1.837048726e-08
1.468322737e-08
1.143422595e-08
8.667936598e-09
6.387952734e-09
4.567937776e-09
3.161536818e-09
2.111034827e-09
1.354121618e-09
8.29684315e-10
4.824239985e-10
2.639658653e-10
1.344535199e-10
6.330432491e-11
2.712073206e-11
1.035027971e-11
3.415294962e-12
9.3223212e-13
1.963614165e-13
2.724956834e-14
1.881021498e-15
6.237360032e-17
2.016494092e-18
1.253079016e-20
0
0
0
0
0
0
0
0
0
0
0
0
0
0
0
0
0
0
0
0
0
0
0
0
0
0
0
0
0
0
0
0
0
0
1.795690678e-08
1.521845297e-08
1.256750907e-08
1.011350718e-08
7.928090477e-09
6.04917331e-09
4.486721418e-09
3.229224411e-09
2.250054603e-09
1.513285863e-09
9.787061562e-10
6.057251674e-10
3.565298567e-10
1.981221053e-10
1.029199236e-10
4.947713951e-11
2.180916232e-11
8.664214894e-12
3.030812315e-12
9.030337929e-13
2.178641303e-13
3.926908564e-14
4.336974576e-15
2.130023241e-16
5.911857534e-18
7.327734028e-20
0
0
0
0
0
0
0
0
0
0
0
0
0
0
0
0
0
0
0
0
0
0
0
0
0
0
0
0
0
0
0
0
0
0
1.171075814e-08
9.982597415e-09
8.290343951e-09
6.707989948e-09
5.286179229e-09
4.053978531e-09
3.021941855e-09
2.185899115e-09
1.530980948e-09
1.035392989e-09
6.738049038e-10
4.201334064e-10
2.495988867e-10
1.403171574e-10
7.403795236e-11
3.626047269e-11
1.635350946e-11
6.707598085e-12
2.455465188e-12
7.817159576e-13
2.083658772e-13
4.375411995e-14
6.600830453e-15
5.383547715e-16
1.934521742e-17
3.131209677e-19
0
0
0
0
0
0
0
0
0
0
0
0
0
0
0
0
0
0
0
0
0
0
0
0
0
0
0
0
0
0
0
0
0
0
7.362528335e-09
6.307628643e-09
5.26353153e-09
4.278347811e-09
3.386138862e-09
2.607574397e-09
1.951513672e-09
1.417173193e-09
9.965521354e-10
6.768297274e-10
4.425530512e-10
2.77485996e-10
1.660377466e-10
9.423200034e-11
5.03427584e-11
2.507992939e-11
1.152881678e-11
4.853770201e-12
1.842731345e-12
6.179106225e-13
1.775860022e-13
4.175554637e-14
7.566553002e-15
8.94290589e-16
5.655060779e-17
1.361909061e-18
0
0
0
0
0
0
0
0
0
0
0
0
0
0
0
0
0
0
0
0
0
0
0
0
0
0
0
0
0
0
0
0
0
0
4.456050084e-09
3.834790772e-09
3.213555737e-09
2.622388837e-09
2.083154025e-09
1.609696185e-09
1.208610197e-09
8.804326217e-10
6.210547823e-10
4.231873823e-10
2.777186938e-10
1.748884323e-10
1.052126782e-10
6.013760905e-11
3.244076812e-11
1.638414696e-11
7.66503372e-12
3.297021807e-12
1.289291561e-12
4.505695104e-13
1.372849231e-13
3.505748573e-14
6.926717973e-15
9.799371464e-16
8.823216432e-17
3.482023532e-18
3.157158548e-21
0
0
0
0
0
0
0
0
0
0
0
0
0
0
0
0
0
0
0
0
0
0
0
0
0
0
0
0
0
0
0
0
0
2.594238709e-09
2.241680367e-09
1.88561686e-09
1.544057888e-09
1.230419767e-09
9.534933749e-10
7.177895734e-10
5.241670205e-10
3.706271127e-10
2.531668758e-10
1.665964172e-10
1.052558889e-10
6.358943641e-11
3.655684994e-11
1.987888085e-11
1.015007584e-11
4.822492518e-12
2.112160734e-12
8.464758495e-13
3.05958784e-13
9.774761759e-14
2.658592225e-14
5.712101724e-15
9.119807694e-16
1.026279591e-16
6.216243613e-18
6.917625938e-20
0
0
0
0
0
0
0
0
0
0
0
0
0
0
0
0
0
0
0
0
0
0
0
0
0
0
0
0
0
0
0
0
0
1.451531138e-09
1.25891709e-09
1.062508865e-09
8.726670767e-10
6.972656969e-10
5.416096814e-10
4.085747593e-10
2.989239953e-10
2.117381199e-10
1.448949685e-10
9.554131835e-11
6.051361129e-11
3.667880095e-11
2.118059216e-11
1.158993944e-11
5.970887777e-12
2.873889174e-12
1.279397942e-12
5.233789457e-13
1.94535794e-13
6.458007936e-14
1.857428457e-14
4.20469152e-15
5.215056842e-16
5.463541658e-17
3.323407526e-18
3.953646559e-20
0
0
0
0
0
0
0
0
0
0
0
0
0
0
0
0
0
0
0
0
0
0
0
0
0
0
0
0
0
0
0
0
0
7.795274925e-10
6.783543873e-10
5.742246185e-10
4.728550435e-10
3.786643857e-10
2.946976873e-10
2.226752028e-10
1.631455722e-10
1.157104114e-10
7.928402973e-11
5.235487909e-11
3.322187017e-11
2.018782204e-11
1.169994366e-11
6.436054027e-12