/*--------------------------------*- C++ -*----------------------------------*\
  =========                 |
  \\      /  F ield         | OpenFOAM: The Open Source CFD Toolbox
   \\    /   O peration     | Website:  https://openfoam.org
    \\  /    A nd           | Version:  10
     \\/     M anipulation  |
\*---------------------------------------------------------------------------*/
FoamFile
{
    format      ascii;
    class       volScalarField;
    location    "0.0250188088";
    object      HCCO_0;
}
// * * * * * * * * * * * * * * * * * * * * * * * * * * * * * * * * * * * * * //

dimensions      [0 0 0 0 0 0 0];

internalField   nonuniform List<scalar> 
5170
(
0
0
0
0
0
0
0
0
0
0
0
0
0
0
0
0
0
0
0
0
0
0
0
0
0
0
0
0
0
0
0
0
0
0
0
0
0
0
0
0
0
0
0
0
0
0
0
0
0
0
0
0
0
0
0
0
0
0
0
0
0
0
0
0
0
0
0
0
0
0
0
0
0
0
0
0
0
0
0
0
0
0
0
0
0
0
0
0
0
0
0
0
0
0
0
0
0
0
0
0
0
0
0
0
2.335645955e-17
1.680875398e-19
0
3.965872838e-18
0
5.841134655e-18
1.355896095e-18
0
1.387011832e-17
0
5.832060115e-19
9.359093899e-19
0
1.148667706e-17
0
0
0
4.739653082e-18
4.618065054e-18
0
5.902087224e-19
0
0
0
9.826547291e-18
0
2.380743825e-16
0
0
0
0
0
6.132686307e-13
0
0
0
0
0
0
0
1.323502147e-12
0
2.564980893e-11
1.841899483e-11
4.101639892e-12
1.319867049e-13
2.529285003e-12
2.296393706e-11
1.753366574e-11
1.025516239e-12
4.845604903e-12
6.986606494e-13
1.76971163e-12
1.090289932e-12
0
2.135161666e-12
8.468590288e-13
8.85642728e-14
6.455664216e-14
9.142012811e-13
9.086979729e-12
4.223834207e-12
0
0
4.965119882e-12
1.502980658e-11
1.093963807e-11
3.084329013e-12
2.656186425e-12
8.475999188e-12
8.559348521e-12
1.16590769e-11
7.841749309e-12
7.335513323e-12
1.254038448e-11
7.123709353e-12
7.59857745e-12
1.234521588e-11
1.166216376e-11
8.228208326e-12
9.095504187e-12
5.30972332e-12
7.526504194e-12
7.119991239e-12
5.255773892e-12
6.004140333e-12
6.973686246e-11
1.990418462e-11
7.255380318e-12
6.807021562e-12
3.056394231e-12
7.141964994e-09
1.342680313e-09
1.750818217e-10
3.27937468e-11
1.91633134e-12
0
0
0
0
6.347885702e-11
0
0
6.61529069e-12
1.006749783e-10
3.235918438e-09
0
0
7.340552559e-12
1.385468016e-10
2.763151608e-09
0
1.75606652e-13
1.125467093e-11
2.183406862e-10
3.672291642e-09
0
2.305838585e-12
3.479753747e-11
5.322695626e-10
7.873755994e-09
3.8719042e-14
5.877261674e-12
5.043577242e-11
8.652621389e-10
1.00639272e-08
8.699508812e-13
1.13887002e-11
6.820392843e-11
9.686785693e-10
8.949980055e-09
1.516068719e-12
1.009010906e-11
7.66763748e-11
8.742765483e-10
6.641906033e-09
1.376887253e-12
4.957225398e-12
8.481715105e-11
8.24003747e-10
5.702559026e-09
1.907771941e-12
8.769086259e-12
1.170831284e-10
1.050478079e-09
7.184711083e-09
5.412397864e-12
2.359277021e-11
1.795001412e-10
1.414143213e-09
8.827281683e-09
4.384256614e-12
2.924413178e-11
2.435182894e-10
1.662144802e-09
9.240323079e-09
0
3.9375947e-11
2.822423851e-10
1.662612262e-09
8.25573311e-09
9.019361725e-12
5.507200413e-11
3.435300993e-10
1.869252561e-09
8.92326173e-09
1.953539858e-11
8.15919989e-11
4.423715713e-10
2.221175516e-09
1.005916382e-08
3.266750535e-11
1.101520439e-10
5.166343848e-10
2.334359239e-09
9.65765479e-09
5.79916054e-11
1.658856675e-10
6.605066758e-10
2.711340429e-09
1.050437223e-08
1.053407596e-10
2.57821527e-10
8.59106025e-10
2.603576005e-09
8.460120309e-09
9.59815821e-11
2.479596859e-10
1.138279002e-09
3.964903014e-09
1.582378827e-08
2.184261565e-10
4.896896682e-10
1.577620912e-09
5.18888999e-09
1.714173644e-08
3.099012411e-10
5.586935828e-10
1.393596788e-09
3.700646673e-09
9.733637829e-09
3.591725081e-10
5.090852423e-10
9.322023826e-10
1.869930772e-09
3.810441949e-09
2.648404833e-10
3.203343884e-10
4.592130917e-10
7.189324411e-10
1.164145583e-09
1.2389074e-10
1.397828748e-10
1.708922432e-10
2.190130573e-10
2.925921631e-10
4.263983174e-11
4.485588111e-11
4.92729628e-11
5.626405787e-11
6.484238753e-11
1.216174233e-11
1.236633009e-11
1.294208595e-11
1.345842315e-11
1.384643854e-11
3.617498718e-12
3.633870062e-12
3.633821668e-12
3.559832293e-12
3.454330605e-12
1.083704137e-12
1.075017891e-12
1.049237639e-12
1.004730846e-12
9.449430279e-13
3.227618936e-13
3.189326242e-13
3.093721681e-13
2.932204677e-13
2.699109613e-13
9.622212626e-14
9.537844404e-14
9.338323182e-14
8.835975057e-14
8.104644387e-14
2.363977078e-14
2.370618198e-14
2.406021024e-14
2.517438142e-14
2.39055551e-14
8.648791921e-15
8.58507549e-15
8.446703921e-15
8.259249167e-15
7.90749893e-15
3.221965205e-15
3.182376625e-15
3.08803631e-15
2.996624893e-15
2.894900896e-15
1.510393729e-15
1.504892912e-15
1.493238901e-15
1.48074129e-15
1.470860272e-15
9.964930144e-16
9.961436136e-16
9.973758998e-16
1.002521499e-15
1.015220071e-15
8.008704221e-16
8.109752459e-16
8.336752134e-16
8.694365859e-16
9.188878702e-16
7.053876993e-16
7.153975157e-16
7.370385444e-16
7.691527693e-16
8.103964418e-16
4.60653695e-16
4.68440709e-16
4.854318782e-16
5.094272941e-16
5.402922614e-16
2.335059333e-16
2.363307471e-16
2.421177911e-16
2.504052558e-16
2.615303668e-16
9.214055993e-17
9.417977368e-17
9.828291087e-17
9.837666116e-17
8.954359654e-17
7.908392837e-18
8.151368054e-18
8.126716664e-18
6.877711665e-18
2.677635242e-18
0
0
0
0
0
0
0
3.282134544e-18
3.749496817e-18
2.659370308e-18
6.235556322e-19
7.063139246e-19
6.685342263e-19
5.802100854e-19
1.597410776e-19
0
0
0
0
0
0
0
0
0
0
0
0
0
0
0
0
0
0
0
0
0
0
0
0
0
0
0
0
0
0
0
0
0
0
0
0
0
0
0
0
0
0
0
0
0
0
0
0
0
0
0
0
0
0
0
0
0
0
0
0
0
0
0
0
0
0
0
0
0
0
0
0
0
0
0
1.154648008e-20
5.720025216e-21
0
0
0
0
0
1.738088863e-22
2.376663585e-22
5.46134072e-23
2.829080009e-21
2.702179054e-21
2.43537851e-21
2.018373909e-21
1.528382797e-21
2.995920505e-22
2.945505655e-22
3.484029971e-22
6.912936528e-22
2.555145348e-21
2.093202626e-19
2.108844575e-19
2.126727478e-19
2.135451454e-19
2.075442091e-19
2.251328671e-19
2.267027913e-19
2.28283528e-19
2.286557935e-19
2.215706363e-19
2.174817829e-19
2.171001462e-19
2.141685724e-19
2.072522199e-19
1.901452787e-19
5.369155214e-21
5.561647333e-21
5.756194012e-21
5.89765377e-21
5.668171931e-21
1.528800787e-20
1.541863263e-20
1.574744641e-20
1.636401069e-20
1.723917429e-20
3.764943364e-20
3.636944235e-20
3.345681506e-20
2.897182283e-20
2.32551411e-20
1.284418931e-20
1.239999206e-20
1.157120479e-20
1.003197119e-20
5.222598007e-21
5.270419443e-10
3.703157457e-08
1.991846787e-08
2.589685521e-08
5.332700505e-08
5.677369643e-08
4.218596321e-08
2.724405917e-08
2.284397897e-08
2.945369155e-08
3.374163349e-08
3.203018474e-08
2.633871375e-08
2.827925948e-08
3.08256382e-08
2.737859907e-08
2.729893642e-08
3.209442364e-08
4.508399785e-08
4.210917513e-08
1.977457719e-08
6.391679354e-09
1.657760224e-09
3.647414149e-10
7.292406606e-11
1.431667279e-11
3.398484214e-12
9.057699835e-13
2.494334152e-13
7.544773458e-14
2.285080114e-14
7.628670921e-15
2.840254012e-15
1.472505466e-15
1.031337703e-15
9.588465819e-16
8.429183075e-16
5.654543852e-16
2.694920615e-16
7.92031461e-17
0
0
1.602140028e-18
0
0
0
0
1.319355747e-19
0
0
0
0
0
0
0
0
0
0
0
0
6.478375847e-23
1.315081963e-21
3.830655523e-21
1.931582398e-19
2.059167297e-19
1.665947454e-19
5.362159153e-21
1.775862321e-20
1.957083637e-20
0
1.963034609e-09
8.987506254e-09
1.0899555e-09
6.438620008e-10
2.366930397e-11
2.085976413e-07
3.48216266e-06
2.00285486e-07
9.0008802e-09
6.574638767e-10
8.021376472e-08
6.466167516e-07
1.29594587e-07
1.02828627e-08
1.555232239e-09
1.175344786e-07
1.42829972e-06
1.558556558e-05
1.175561672e-06
5.892561466e-08
2.400779267e-07
2.84046081e-06
2.792393373e-05
2.890234598e-06
2.188047873e-07
2.261765513e-07
2.230332505e-06
1.827249819e-05
2.370538093e-06
2.193436099e-07
1.497983485e-07
1.213105695e-06
7.985761089e-06
1.340649965e-06
1.624245651e-07
8.848334532e-08
6.280439657e-07
3.727354412e-06
7.873200261e-06
9.994041554e-07
7.472717289e-08
6.261062706e-07
4.22806461e-06
2.153443911e-05
3.139355928e-06
9.847672532e-08
7.19404372e-07
4.834057581e-06
2.717746206e-05
4.476382655e-06
1.077456477e-07
7.098617541e-07
4.435325923e-06
2.349807519e-05
4.364462682e-06
9.46402904e-08
5.910463969e-07
3.374691599e-06
1.668204305e-05
4.98299971e-06
7.359362526e-08
5.138085165e-07
2.69615071e-06
1.27449317e-05
1.38949219e-05
7.968789822e-08
4.880155621e-07
2.371453473e-06
1.104789585e-05
2.310833472e-05
7.700536627e-08
4.320723414e-07
2.126624873e-06
9.596465618e-06
2.37872508e-05
7.11819101e-08
3.768658017e-07
1.938526331e-06
8.407147333e-06
2.271727472e-05
6.826870938e-08
3.448561038e-07
1.775372728e-06
7.328804047e-06
1.964022788e-05
8.297004124e-08
4.132943795e-07
1.886754595e-06
7.660896641e-06
2.024986227e-05
1.128715614e-07
5.523034322e-07
2.48249387e-06
1.008208371e-05
2.395007411e-05
1.017142193e-07
4.59771675e-07
1.885722823e-06
6.840827576e-06
1.457414882e-05
4.190246727e-08
1.431207472e-07
4.376056207e-07
1.143081237e-06
1.834768989e-06
1.16223975e-08
2.933715154e-08
6.644315867e-08
1.297062034e-07
1.691298019e-07
2.610049211e-09
5.015437422e-09
8.644087653e-09
1.299193228e-08
1.421221307e-08
5.041142705e-10
7.667186352e-10
1.050923623e-09
1.274063508e-09
1.20684669e-09
9.23987055e-11
1.1315038e-10
1.285321144e-10
1.307599376e-10
1.099102245e-10
1.572052334e-11
1.650625033e-11
1.574156879e-11
1.350181557e-11
1.009884676e-11
3.451654979e-12
3.241786547e-12
2.768268542e-12
2.166008438e-12
1.536776922e-12
8.812476763e-13
7.793077504e-13
6.49634164e-13
4.632701336e-13
2.55987589e-13
2.167601716e-13
2.117797158e-13
1.750024947e-13
1.250639121e-13
6.723406406e-14
6.880737258e-14
5.49992977e-14
4.67400729e-14
3.810034285e-14
2.587969347e-14
2.175224817e-14
1.836455277e-14
1.39905595e-14
1.221790063e-14
9.457829846e-15
7.36737608e-15
6.511651505e-15
5.169880495e-15
4.247846777e-15
3.560644113e-15
2.813683732e-15
2.600362308e-15
2.384383591e-15
2.092980522e-15
1.843723892e-15
1.491501078e-15
1.430793282e-15
1.347033671e-15
1.317135349e-15
1.366164842e-15
1.060197735e-15
1.117492779e-15
1.189462681e-15
1.267578083e-15
1.390718292e-15
1.015247287e-15
1.130536063e-15
1.217340522e-15
1.350199671e-15
1.58001681e-15
8.945009014e-16
9.862631943e-16
1.07865962e-15
1.18294029e-15
1.239650235e-15
6.070685329e-16
6.57201692e-16
6.574167491e-16
6.565405586e-16
6.958498573e-16
2.831777973e-16
2.756874635e-16
2.407057233e-16
2.217021497e-16
2.532989172e-16
6.261089742e-17
3.103946591e-17
0
0
2.322162879e-17
0
0
0
0
2.18048812e-18
0
0
8.715792428e-19
0
0
4.82924459e-19
4.876097592e-19
0
0
0
0
0
0
0
0
0
0
0
0
0
0
0
0
0
0
0
0
1.351985782e-17
1.080948838e-17
3.32349902e-18
7.250209204e-19
2.532453109e-18
2.734393602e-18
4.690759284e-19
0
0
0
0
0
0
0
0
0
0
0
0
0
0
0
0
0
0
0
0
0
0
0
0
0
0
0
0
0
0
0
0
0
0
0
0
0
0
0
0
0
0
0
0
0
0
0
0
0
0
0
0
0
0
0
0
0
0
0
0
2.509538406e-22
0
0
0
0
1.661302306e-21
8.620612698e-22
2.121777435e-21
6.12906792e-21
1.21942684e-20
2.799482934e-20
6.792452907e-21
2.326389961e-20
1.798315315e-19
2.097183446e-19
2.267944509e-19
2.252339171e-19
2.336944952e-19
2.393120179e-19
2.420515471e-19
2.404738287e-19
2.363606732e-19
2.384213646e-19
2.321930124e-19
2.197654903e-19
2.017250543e-19
1.854180668e-19
1.737233449e-19
1.577752341e-19
1.827611985e-20
7.519605236e-21
6.869473262e-21
6.674244696e-21
8.445630809e-21
6.695566607e-21
7.169390047e-21
1.98722619e-20
2.783972084e-20
2.59098976e-20
1.963465385e-20
1.327432379e-20
1.607207501e-20
1.264377044e-20
8.207666102e-21
0
0
0
0
0
0
0
6.137075808e-14
0
0
0
0
0
0
0
0
0
0
0
0
0
0
0
0
0
0
0
0
0
0
0
0
0
0
0
0
0
0
0
0
0
0
0
0
0
0
0
0
0
0
0
0
0
0
0
0
0
0
0
0
0
0
0
0
0
0
0
2.813741497e-12
9.748521381e-14
0
0
0
0
0
0
0
0
0
0
0
0
0
0
0
0
0
0
0
0
0
0
0
0
0
0
0
0
0
0
0
0
0
0
0
0
0
0
0
0
0
0
0
0
0
0
0
0
0
0
0
0
0
0
0
0
0
0
1.099414647e-11
0
0
0
0
0
0
0
0
0
0
0
0
0
0
0
0
0
0
0
0
0
0
0
0
0
0
0
0
0
0
0
0
0
0
0
0
0
0
0
0
0
0
0
0
0
0
0
0
0
0
0
0
0
0
0
0
0
0
0
9.560074269e-10
3.718155705e-12
3.19845985e-13
0
0
0
0
0
0
0
0
0
0
0
0
0
0
0
0
0
0
0
0
0
0
0
0
0
0
0
0
0
0
0
0
0
0
0
0
0
0
0
0
0
0
0
0
0
0
0
0
0
0
0
0
0
0
0
0
0
7.75764549e-09
6.950904247e-11
6.550720988e-13
1.577971001e-13
0
0
0
0
0
0
0
0
0
0
0
0
0
0
0
0
0
0
0
0
0
0
0
0
0
0
0
0
0
0
0
0
0
0
0
0
0
0
0
0
0
0
0
0
0
0
0
0
0
0
0
0
0
0
0
0
1.61074045e-08
3.828652291e-10
3.270719043e-12
7.76239605e-13
4.589848802e-14
0
0
0
0
0
0
0
0
0
0
0
0
0
0
0
0
0
0
0
0
0
0
0
0
0
0
0
0
0
0
0
0
0
0
0
0
0
0
0
0
0
0
0
0
0
0
0
0
0
0
0
0
0
0
0
1.524903514e-08
8.473494517e-10
2.011451685e-11
2.755863445e-13
9.016772585e-14
0
0
0
0
0
0
0
0
0
0
0
0
0
0
0
0
0
0
0
0
0
0
0
0
0
0
0
0
0
0
0
0
0
0
0
0
0
0
0
0
0
0
0
0
0
0
0
0
0
0
0
0
0
0
0
7.882917437e-08
5.0824234e-09
1.73197741e-10
3.495593947e-12
0
2.053524668e-16
0
0
0
0
0
0
0
0
0
0
0
0
0
0
0
0
0
0
0
0
0
0
0
0
0
0
0
0
0
0
0
0
0
0
0
0
0
0
0
0
0
0
0
0
0
0
0
0
0
0
0
0
0
0
2.887543454e-07
2.128553412e-08
1.059934661e-09
3.557530196e-11
7.934731921e-13
3.070059712e-13
1.136208498e-14
0
0
0
0
0
0
0
0
0
0
0
0
0
0
0
0
0
0
0
0
0
0
0
0
0
0
0
0
0
0
0
0
0
0
0
0
0
0
0
0
0
0
0
0
0
0
0
0
0
0
0
0
0
4.796973885e-07
3.521545611e-08
2.801227333e-09
1.435315436e-10
5.850621911e-12
1.443660856e-13
7.29101799e-14
0
0
0
0
0
0
0
0
0
0
0
0
0
0
0
0
0
0
0
0
0
0
0
0
0
0
0
0
0
0
0
0
0
0
0
0
0
0
0
0
0
0
0
0
0
0
0
0
0
0
0
0
0
6.211470425e-07
5.882371453e-08
6.276296597e-09
4.504716409e-10
2.618676648e-11
1.003798354e-12
3.072477154e-13
1.625065146e-14
0
0
0
0
0
0
0
0
0
0
0
0
0
0
0
0
0
0
0
0
0
0
0
0
0
0
0
0
0
0
0
0
0
0
0
0
0
0
0
0
0
0
0
0
0
0
0
0
0
0
0
0
6.80431115e-07
7.157099423e-08
8.366524877e-09
1.105411923e-09
8.672242702e-11
4.574118375e-12
1.098138872e-13
5.343221462e-14
0
0
0
0
0
0
0
0
0
0
0
0
0
0
0
0
0
0
0
0
0
0
0
0
0
0
0
0
0
0
0
0
0
0
0
0
0
0
0
0
0
0
0
0
0
0
0
0
0
0
0
0
1.997307004e-06
2.254435564e-07
2.082760758e-08
3.620603278e-09
3.041026011e-10
1.813766283e-11
5.742928714e-13
1.601172891e-13
5.520723243e-15
0
0
0
0
0
0
0
0
0
0
0
0
0
0
0
0
0
0
0
0
0
0
0
0
0
0
0
0
0
0
0
0
0
0
0
0
0
0
0
0
0
0
0
0
0
0
0
0
0
0
0
3.667431e-06
4.81821359e-07
4.902855494e-08
8.117933848e-09
8.205374232e-10
5.754546005e-11
2.369006196e-12
4.890761296e-13
2.854851909e-14
0
0
0
0
0
0
0
0
0
0
0
0
0
0
0
0
0
0
0
0
0
0
0
0
0
0
0
0
0
0
0
0
0
0
0
0
0
0
0
0
0
0
0
0
0
0
0
0
0
0
0
4.233076705e-06
6.909669931e-07
8.423140488e-08
1.353160697e-08
1.769697788e-09
1.378067322e-10
6.854875739e-12
2.369395468e-13
7.397635483e-14
5.085142523e-16
0
0
0
0
0
0
0
0
0
0
0
0
0
0
0
0
0
0
0
0
0
0
0
0
0
0
0
0
0
0
0
0
0
0
0
0
0
0
0
0
0
0
0
0
0
0
0
0
0
0
4.4459228e-06
7.393283587e-07
1.026081099e-07
1.640859504e-08
2.621911114e-09
2.21106296e-10
1.261873987e-11
4.387150096e-13
8.972569823e-14
1.754254053e-15
0
0
0
0
0
0
0
0
0
0
0
0
0
0
0
0
0
0
0
0
0
0
0
0
0
0
0
0
0
0
0
0
0
0
0
0
0
0
0
0
0
0
0
0
0
0
0
0
0
0
4.626646295e-06
8.197935248e-07
1.229305419e-07
2.17994673e-08
2.829087481e-09
2.416878221e-10
1.454674463e-11
8.16930964e-13
1.174312003e-13
2.685415055e-15
0
0
0
0
0
0
0
0
0
0
0
0
0
0
0
0
0
0
0
0
0
0
0
0
0
0
0
0
0
0
0
0
0
0
0
0
0
0
0
0
0
0
0
0
0
0
0
0
0
0
4.449653919e-06
8.12159819e-07
1.254866513e-07
4.673113392e-08
3.61775822e-09
2.210112497e-10
1.168480922e-11
5.427033167e-13
5.97403159e-14
4.958340337e-16
0
0
0
0
0
0
0
0
0
0
0
0
0
0
0
0
0
0
0
0
0
0
0
0
0
0
0
0
0
0
0
0
0
0
0
0
0
0
0
0
0
0
0
0
0
0
0
0
0
0
4.835317299e-06
8.66654401e-07
1.28141532e-07
1.373433251e-08
1.120808811e-09
7.635018047e-11
4.508939266e-12
5.729947935e-13
5.382587781e-14
1.35509412e-14
0
0
0
0
0
0
0
0
0
0
0
0
0
0
0
0
0
0
0
0
0
0
0
0
0
0
0
0
0
0
0
0
0
0
0
0
0
0
0
0
0
0
0
0
0
0
0
0
0
0
3.73153507e-06
7.036906591e-07
1.102681975e-07
9.905221898e-09
6.775553117e-10
4.047466932e-11
2.280750751e-12
2.147300197e-13
4.784332762e-14
1.544114464e-14
1.111543663e-15
0
0
0
0
0
0
0
0
0
0
0
0
0
0
0
0
0
0
0
0
0
0
0
0
0
0
0
0
0
0
0
0
0
0
0
0
0
0
0
0
0
0
0
0
0
0
0
0
0
6.248181656e-07
1.363125337e-07
1.964705503e-08
2.029829337e-09
1.70363663e-10
1.267658316e-11
1.05247612e-12
6.157628743e-14
2.463599915e-14
1.064085727e-14
1.148560122e-14
0
0
0
0
0
0
0
0
0
0
0
0
0
0
0
0
0
0
0
0
0
0
0
0
0
0
0
0
0
0
0
0
0
0
0
0
0
0
0
0
0
0
0
0
0
0
0
0
0
6.691970339e-08
1.585740803e-08
2.617032228e-09
3.318438821e-10
3.495088127e-11
3.217262274e-12
1.017477971e-13
1.850498709e-14
2.348808436e-15
9.5061447e-16
1.389618722e-15
7.85227415e-15
0
0
0
0
0
0
0
0
0
0
0
0
0
0
0
0
0
0
0
0
0
0
0
0
0
0
0
0
0
0
0
0
0
0
0
0
0
0
0
0
0
0
0
0
0
0
0
0
6.338509118e-09
1.703359676e-09
3.316121558e-10
5.084018462e-11
6.544444408e-12
7.680506723e-13
1.344357169e-13
1.354309651e-14
1.617060848e-15
6.336835816e-16
0
5.913676909e-16
6.102465891e-15
0
0
0
0
0
0
0
0
0
0
0
0
0
0
0
0
0
0
0
0
0
0
0
0
0
0
0
0
0
0
0
0
0
0
0
0
0
0
0
0
0
0
0
0
0
0
0
5.979616422e-10
1.833802331e-10
4.167704105e-11
7.614138872e-12
1.201786734e-12
1.69115305e-13
8.060746936e-16
3.776955784e-15
2.940462488e-15
2.099333426e-15
1.723557693e-15
1.060318388e-15
5.35400265e-16
5.622209346e-15
0
0
0
0
0
0
0
0
0
0
0
0
0
0
0
0
0
0
0
0
0
0
0
0
0
0
0
0
0
0
0
0
0
0
0
0
0
0
0
0
0
0
0
0
0
0
5.855009443e-11
2.022829465e-11
4.836996338e-12
1.093568226e-12
2.264879538e-13
5.442822188e-14
1.478813963e-14
4.240666932e-15
1.469692371e-15
3.4716015e-16
1.654023529e-15
9.29744355e-16
1.871295582e-15
8.135760516e-16
6.769109469e-15
0
0
0
0
0
0
0
0
0
0
0
0
0
0
0
0
0
0
0
0
0
0
0
0
0
0
0
0
0
0
0
0
0
0
0
0
0
0
0
0
0
0
0
0
0
5.695211206e-12
2.301836385e-12
7.680085511e-13
2.722815456e-13
7.011720634e-14
1.805533563e-14
6.223375699e-15
9.530171279e-16
2.339137025e-16
9.435693022e-16
2.915623432e-16
8.694427127e-16
6.387607549e-16
3.286574571e-15
6.73300239e-15
8.067839302e-15
0
0
0
0
0
0
0
0
0
0
0
0
0
0
0
0
0
0
0
0
0
0
0
0
0
0
0
0
0
0
0
0
0
0
0
0
0
0
0
0
0
0
0
0
9.61863657e-13
4.171772524e-13
1.6289579e-13
1.507300385e-14
1.563456323e-14
0
1.912028392e-15
0
4.314616056e-16
1.056284176e-15
1.106298328e-15
3.25276422e-16
8.276439566e-16
0
0
6.380670258e-15
1.02341283e-14
0
0
0
0
0
0
0
0
0
0
0
0
0
0
0
0
0
0
0
0
0
0
0
0
0
0
0
0
0
0
0
0
0
0
0
0
0
0
0
0
0
0
0
2.160040118e-13
1.165528168e-13
4.953520324e-14
1.956478788e-14
9.229440942e-15
3.799858747e-15
2.187769655e-15
8.972423876e-16
0
9.893369736e-16
7.173966746e-16
2.565905222e-16
8.577641529e-16
7.346671615e-16
1.092961541e-16
0
6.618734889e-15
1.031229377e-14
0
0
0
0
0
0
0
0
0
0
0
0
0
0
0
0
0
0
0
0
0
0
0
0
0
0
0
0
0
0
0
0
0
0
0
0
0
0
0
0
0
0
5.210336617e-14
2.400021959e-14
1.577197376e-14
7.935173351e-15
3.91708599e-15
2.327867711e-15
1.65805449e-15
1.004193437e-15
0
0
0
3.365576697e-16
2.682088296e-16
7.974598842e-16
8.548900685e-16
1.318807964e-15
3.062602494e-15
8.76676112e-15
0
0
0
0
0
0
0
0
0
0
0
0
0
0
0
0
0
0
0
0
0
0
0
0
0
0
0
0
0
0
0
0
0
0
0
0
0
0
0
0
0
0
1.161064211e-14
1.03245245e-14
6.353745646e-15
2.598905862e-15
2.077031046e-15
1.518165694e-15
1.199689646e-15
9.850287406e-16
0
0
0
8.888736731e-16
1.626920702e-15
3.412751165e-16
9.704310924e-16
0
0
5.223215459e-15
9.233713935e-15
0
0
0
0
0
0
0
0
0
0
0
0
0
0
0
0
0
0
0
0
0
0
0
0
0
0
0
0
0
0
0
0
0
0
0
0
0
0
0
0
0
6.607855464e-15
4.461299479e-15
2.580932864e-15
1.03385336e-15
1.420016879e-15
1.066365136e-15
1.020483032e-15
9.811866374e-16
1.155501063e-15
1.226551578e-15
1.134499248e-15
1.484847949e-15
8.133790734e-16
3.394333471e-16
7.748107887e-16
7.542587059e-16
3.073250646e-16
0
6.03809592e-15
1.007489144e-14
0
0
0
0
0
0
0
0
0
0
0
0
0
0
0
0
0
0
0
0
0
0
0
0
0
0
0
0
0
0
0
0
0
0
0
0
0
0
0
0
2.622993478e-15
2.1255071e-15
1.419679667e-15
1.496514772e-15
1.365609557e-15
1.346959781e-15
1.834679954e-15
1.259979657e-15
1.170196681e-15
1.406547608e-15
1.07714304e-15
1.1259693e-15
7.9639799e-16
0
0
0
3.816578627e-16
1.493227357e-15
7.820105493e-15
1.010311989e-14
0
0
0
0
0
0
0
0
0
0
0
0
0
0
0
0
0
0
0
0
0
0
0
0
0
0
0
0
0
0
0
0
0
0
0
0
0
0
0
0
1.672107077e-15
1.484005638e-15
1.294473758e-15
1.235883769e-15
1.419216407e-15
1.493975403e-15
2.119768716e-15
1.816954305e-15
1.305219887e-15
1.101123473e-15
7.582131449e-16
4.754320115e-16
2.047150815e-16
9.813348008e-17
0
7.38356785e-16
7.74484769e-16
4.73914977e-16
0
5.712323729e-15
9.598225197e-15
0
0
0
0
0
0
0
0
0
0
0
0
0
0
0
0
0
0
0
0
0
0
0
0
0
0
0
0
0
0
0
0
0
0
0
0
0
0
0
1.389824616e-15
1.452946063e-15
1.525558261e-15
1.564349333e-15
1.845525109e-15
1.912667189e-15
1.790329889e-15
2.102546133e-15
1.169847269e-15
7.160874312e-16
4.412081611e-16
3.065393353e-16
3.531854836e-16
3.899692118e-16
4.350433006e-18
0
8.112443562e-16
4.336692744e-15
6.046257905e-15
1.31487729e-14
1.502807922e-14
1.230748178e-14
0
0
0
0
0
0
0
0
0
0
0
0
0
0
0
0
0
0
0
0
0
0
0
0
0
0
0
0
0
0
0
0
0
0
0
0
0
0
1.607213766e-15
1.841498512e-15
1.787117578e-15
1.688011054e-15
1.990968961e-15
1.916414839e-15
1.819297303e-15
2.052341676e-15
1.121036566e-15
6.3178375e-16
4.573074741e-16
3.08836207e-16
3.738019635e-16
2.425812855e-16
3.456778502e-16
6.050220667e-17
9.924474502e-16
8.645292064e-16
8.013554279e-16
0
8.21063521e-15
1.108956629e-14
0
0
0
0
0
0
0
0
0
0
0
0
0
0
0
0
0
0
0
0
0
0
0
0
0
0
0
0
0
0
0
0
0
0
0
0
0
0
1.980151438e-15
2.032326598e-15
1.846953258e-15
1.499609092e-15
1.57093401e-15
1.248968481e-15
1.233210031e-15
1.644179748e-15
8.793234251e-16
5.015263512e-16
4.151325655e-16
2.994067585e-16
4.628563076e-16
2.6571471e-16
4.888865042e-16
3.166371581e-16
0
7.079264606e-16
3.277545035e-15
3.504530887e-15
8.174364753e-15
1.194291239e-14
1.114546561e-14
0
0
0
0
0
0
0
0
0
0
0
0
0
0
0
0
0
0
0
0
0
0
0
0
0
0
0
0
0
0
0
0
0
0
0
0
0
1.413970014e-15
1.523824575e-15
1.097354388e-15
7.520271766e-16
6.241664354e-16
5.406273527e-16
6.438137906e-16
1.161988543e-15
5.000459143e-16
2.255769131e-16
2.002146226e-16
1.16957048e-16
2.005125494e-16
1.555476171e-16
3.24418315e-16
0
0
6.774738297e-17
2.229032094e-15
1.765717177e-15
0
8.981987823e-15
1.090414557e-14
0
0
0
0
0
0
0
0
0
0
0
0
0
0
0
0
0
0
0
0
0
0
0
0
0
0
0
0
0
0
0
0
0
0
0
0
0
8.29983509e-16
9.426710347e-16
5.275417786e-16
2.318612138e-16
1.50269024e-16
1.297750955e-16
2.862897661e-16
8.543604207e-16
2.649196217e-16
4.859453741e-17
4.129890077e-17
0
1.702597164e-17
1.944700479e-17
9.823661839e-17
5.3658161e-16
1.464615566e-15
4.383098025e-16
2.176277291e-15
2.082399886e-15
1.671852091e-15
0
9.45476457e-15
1.031656781e-14
0
0
0
0
0
0
0
0
0
0
0
0
0
0
0
0
0
0
0
0
0
0
0
0
0
0
0
0
0
0
0
0
0
0
0
0
3.821253189e-16
2.56982738e-16
8.677387241e-17
0
3.046244353e-17
8.66238708e-19
0
1.504713564e-17
0
0
1.023085967e-17
0
8.223790058e-18
1.249603565e-16
4.226489371e-17
2.560134531e-16
2.041426801e-16
0
1.305963284e-16
2.170541693e-15
1.604482114e-15
0
9.801357466e-15
1.397407791e-14
9.754366005e-15
0
0
0
0
0
0
0
0
0
0
0
0
0
0
0
0
0
0
0
0
0
0
0
0
0
0
0
0
0
0
0
0
0
0
0
5.127474141e-17
9.816852736e-18
0
0
0
0
0
4.776143028e-18
0
0
3.021685446e-18
0
0
1.240519909e-16
2.883746829e-17
2.14429517e-17
0
0
0
2.257811871e-15
3.024181798e-15
1.915479981e-15
0
1.222066526e-14
1.25125552e-14
0
0
0
0
0
0
0
0
0
0
0
0
0
0
0
0
0
0
0
0
0
0
0
0
0
0
0
0
0
0
0
0
0
0
0
0
0
0
9.90396887e-18
5.875174249e-19
0
0
3.611519658e-18
0
0
1.889662457e-18
0
0
1.147070996e-16
5.159641787e-19
0
4.163979506e-16
1.494271739e-15
7.552053684e-16
1.742095989e-15
2.438269578e-15
1.800914271e-15
0
1.234160833e-14
1.578944704e-14
1.26958646e-14
0
0
0
0
0
0
0
0
0
0
0
0
0
0
0
0
0
0
0
0
0
0
0
0
0
0
0
0
0
0
0
0
0
0
0
0
0
0
0
0
0
3.586036301e-18
0
0
2.081760494e-18
0
0
1.128945612e-16
0
0
4.271291575e-16
1.891609584e-15
5.19873324e-16
1.802737226e-15
3.207935611e-15
3.918146374e-15
2.701840367e-15
0
1.067020533e-14
1.177237546e-14
0
0
0
0
0
0
0
0
0
0
0
0
0
0
0
0
0
0
0
0
0
0
0
0
0
0
0
0
0
0
0
0
0
0
0
0
9.61065025e-18
3.594755731e-20
0
0
3.612741998e-17
6.718949488e-18
0
0
0
0
0
1.095131592e-16
3.884554617e-20
0
6.221059407e-18
0
0
0
1.758395229e-15
2.685035743e-15
1.823762385e-15
0
1.008425944e-14
1.449758965e-14
1.221800446e-14
0
0
0
0
0
0
0
0
0
0
0
0
0
0
0
0
0
0
0
0
0
0
0
0
0
0
0
0
0
0
0
0
0
0
9.359020406e-18
5.634747613e-20
0
0
0
3.573402385e-18
0
0
0
3.036963708e-19
0
0
2.005436105e-17
0
0
0
3.905546467e-16
1.452721805e-15
5.825504356e-16
1.379533453e-15
1.832991489e-15
1.207343825e-15
0
6.550102074e-15
1.209992601e-14
1.208293454e-14
0
0
0
0
0
0
0
0
0
0
0
0
0
0
0
0
0
0
0
0
0
0
0
0
0
0
0
0
0
0
0
0
0
9.084101902e-18
7.156257085e-19
0
0
0
0
3.204552485e-18
0
0
0
0
0
0
1.052394783e-17
0
0
0
4.222864112e-16
2.016524556e-15
6.163705783e-16
1.254620534e-15
1.36120964e-15
1.844793231e-15
1.302662846e-15
0
1.041472305e-14
1.471320744e-14
1.23089343e-14
0
0
0
0
0
0
0
0
0
0
0
0
0
0
0
0
0
0
0
0
0
0
0
0
0
0
0
0
0
0
0
0
0
0
0
0
0
0
0
0
0
2.022461443e-18
9.20290571e-21
0
0
2.52176686e-17
1.239625127e-16
1.045416853e-18
0
1.750880049e-16
1.249133186e-15
1.556516578e-16
1.980150138e-17
1.25914283e-15
1.761378195e-15
1.256706221e-15
0
9.271111612e-15
1.404014597e-14
1.280585879e-14
0
0
0
0
0
0
0
0
0
0
0
0
0
0
0
0
0
0
0
0
0
0
0
0
0
0
0
0
0
0
0
0
0
0
0
0
0
3.065317368e-18
0
0
0
1.931159753e-18
0
0
1.69336559e-18
3.740776216e-17
1.438061403e-16
8.230374663e-18
0
0
0
0
1.568127484e-17
1.31605642e-15
2.087149759e-15
2.240917757e-15
0
0
1.047000112e-14
1.345421825e-14
7.552791752e-15
0
0
0
0
0
0
0
0
0
0
0
0
0
0
0
0
0
0
0
0
0
0
0
0
0
0
0
0
0
0
0
0
0
0
0
0
0
0
0
0
1.866152829e-18
0
0
1.040643861e-18
4.408658897e-17
1.519283399e-16
1.927327072e-17
0
0
1.169718535e-17
8.446416567e-16
1.118806763e-16
1.18259063e-15
1.495869777e-15
2.031497776e-15
1.756056514e-15
0
9.772973444e-15
1.442421321e-14
1.251351858e-14
0
0
0
0
0
0
0
0
0
0
0
0
0
0
0
0
0
0
0
0
0
0
0
0
0
0
0
0
0
0
0
0
0
0
0
0
0
0
0
1.824121728e-18
1.94014786e-19
0
0
6.122502751e-18
4.887332015e-17
1.570130113e-16
2.801309688e-17
9.679842823e-18
0
2.430585605e-16
1.678736436e-15
3.155034495e-16
2.286387518e-16
1.661876317e-15
2.823115414e-15
3.04222746e-15
0
0
9.661477767e-15
1.109258243e-14
0
0
0
0
0
0
0
0
0
0
0
0
0
0
0
0
0
0
0
0
0
0
0
0
0
0
0
0
0
0
0
0
0
0
0
0
0
0
0
1.897940998e-18
3.144844803e-19
0
0
5.522954167e-18
4.336678586e-17
1.487076763e-16
2.114545e-17
5.034851288e-18
0
9.639397754e-17
7.489353351e-16
8.122356124e-17
2.49264054e-17
1.314212167e-15
1.966297688e-15
1.713144043e-15
0
0
9.74933244e-15
1.405908849e-14
1.181260233e-14
0
0
0
0
0
0
0
0
0
0
0
0
0
0
0
0
0
0
0
0
0
0
0
0
0
0
0
0
0
0
0
0
0
0
0
0
0
0
3.161434525e-21
1.550606805e-19
2.541824483e-19
0
1.293150537e-18
3.106996998e-17
1.330001551e-16
1.234972289e-17
0
0
0
0
0
1.240872974e-17
1.154498729e-15
1.395500365e-15
1.824149639e-15
1.514115469e-15
0
8.337281479e-15
1.321694549e-14
1.234678094e-14
0
0
0
0
0
0
0
0
0
0
0
0
0
0
0
0
0
0
0
0
0
0
0
0
0
0
0
0
0
0
0
0
0
0
0
0
0
0
3.784663356e-21
1.698347108e-19
9.979352608e-20
0
0
2.084852781e-17
1.367525789e-16
6.254619231e-18
0
0
0
0
0
0
4.572982667e-17
1.513504446e-15
2.675611963e-15
2.950656317e-15
0
0
1.266176367e-14
1.576722527e-14
1.24089516e-14
0
0
0
0
0
0
0
0
0
0
0
0
0
0
0
0
0
0
0
0
0
0
0
0
0
0
0
0
0
0
0
0
0
0
0
0
0
1.698126368e-19
1.756451161e-19
1.033356674e-19
0
0
1.991974992e-17
1.395950897e-16
6.289238894e-18
0
0
0
0
8.78303405e-17
0
1.33900718e-17
1.299746266e-15
1.86281715e-15
2.716541661e-15
0
0
1.207154682e-14
1.582348795e-14
1.337585428e-14
0
0
0
0
0
0
0
0
0
0
0
0
0
0
0
0
0
0
0
0
0
0
0
0
0
0
0
0
0
0
0
0
0
0
0
0
8.060220962e-21
1.712260097e-19
1.776329227e-19
1.119291321e-19
0
0
5.378247794e-18
4.09374237e-17
4.785434025e-19
0
0
0
0
9.284316271e-19
0
1.404179324e-17
1.299102511e-15
1.845335012e-15
2.713655992e-15
2.711813974e-15
0
0
1.11932972e-14
1.387822656e-14
7.960310356e-15
0
0
0
0
0
0
0
0
0
0
0
0
0
0
0
0
0
0
0
0
0
0
0
0
0
0
0
0
0
0
0
0
0
0
1.347394528e-20
1.692025202e-19
1.776996106e-19
1.673351545e-19
0
0
0
0
3.201069964e-17
1.811802252e-18
0
0
0
0
0
0
0
5.533163134e-16
1.860149715e-15
3.157219025e-15
3.456540519e-15
2.706253643e-17
0
1.028879076e-14
1.49411453e-14
1.2805273e-14
0
0
0
0
0
0
0
0
0
0
0
0
0
0
0
0
0
0
0
0
0
0
0
0
0
0
0
0
0
0
0
0
0
9.818652007e-21
1.44235965e-20
1.744532049e-19
1.790965491e-19
1.703374137e-19
0
0
0
0
0
0
0
0
0
0
0
0
0
1.919059021e-17
1.254625669e-15
1.49791561e-15
1.619781145e-15
0
0
8.423315954e-15
1.320633884e-14
1.228714072e-14
0
0
0
0
0
0
0
0
0
0
0
0
0
0
0
0
0
0
0
0
0
0
0
0
0
0
0
0
0
0
0
0
1.275010317e-20
2.443751891e-20
1.885035005e-19
1.971551793e-19
1.674228522e-19
0
0
0
0
0
0
0
0
0
0
0
0
0
0
1.127293214e-17
1.238579105e-15
1.556358428e-15
1.996952633e-15
2.27189992e-15
0
0
1.054886076e-14
1.464412497e-14
1.201026351e-14
0
0
0
0
0
0
0
0
0
0
0
0
0
0
0
0
0
0
0
0
0
0
0
0
0
0
0
0
0
0
1.346318987e-20
3.140240773e-20
1.969277497e-19
2.158296698e-19
2.0349263e-19
1.677133886e-19
0
0
0
0
0
0
0
0
0
0
0
0
0
0
1.081745441e-17
1.220462534e-15
1.618385086e-15
2.581951825e-15
3.351281186e-15
0
0
1.011015397e-14
1.490763204e-14
1.312311914e-14
0
0
0
0
0
0
0
0
0
0
0
0
0
0
0
0
0
0
0
0
0
0
0
0
0
0
0
0
0
0
2.836052062e-21
1.356528906e-20
1.883626476e-19
2.014488314e-19
1.744059436e-19
1.019189846e-20
0
0
0
0
0
0
0
0
0
0
0
0
0
0
0
1.649395001e-16
1.298270757e-15
1.763793088e-15
2.621123132e-15
0
0
8.582721884e-15
1.393857482e-14
1.462559689e-14
7.889245355e-15
0
0
0
0
0
0
0
0
0
0
0
0
0
0
0
0
0
0
0
0
0
0
0
0
0
0
3.814375576e-21
1.242086009e-20
3.044360005e-20
1.939602721e-19
2.151437608e-19
2.159166612e-19
1.873309626e-19
1.268939401e-20
0
0
0
0
0
0
0
0
0
0
0
0
0
0
0
0
8.291038215e-18
1.160666541e-15
1.301856432e-15
1.278485948e-15
0
0
0
1.082269737e-14
1.531347075e-14
1.291787799e-14
0
0
0
0
0
0
0
0
0
0
0
0
0
0
0
0
0
0
0
0
0
0
0
0
0
0
5.692790543e-21
1.938206016e-20
1.916544989e-19
2.192574486e-19
2.184376962e-19
1.884610278e-19
1.531365267e-20
9.264342817e-22
0
0
0
0
0
9.577912495e-18
1.161691004e-18
0
0
0
0
0
0
0
0
0
1.087268553e-17
1.166174871e-15
1.323392461e-15
1.571995971e-15
1.8714435e-15
0
0
1.017211021e-14
1.501608669e-14
1.322101647e-14
0
0
0
0
0
0
0
0
0
0
0
0
0
0
0
0
0
0
0
0
0
0
0
0
0
0
1.899209495e-19
2.188619813e-19
2.307947407e-19
2.22511354e-19
1.901917319e-19
1.773450374e-20
4.593096542e-22
0
0
0
0
0
0
2.714460898e-19
0
0
0
0
0
0
0
0
0
0
9.965366026e-18
1.159792398e-15
1.383887876e-15
2.043440729e-15
2.748409459e-15
0
0
8.740096295e-15
1.44745742e-14
1.602429244e-14
1.18891706e-14
0
0
0
0
0
0
0
0
0
0
0
0
0
0
0
0
0
0
0
0
0
0
0
0
0
2.407277246e-19
2.405988551e-19
2.24987007e-19
1.898969705e-19
1.848601448e-20
5.196639838e-21
1.324057375e-23
0
0
0
0
0
0
0
0
0
0
0
0
0
0
0
0
0
7.871388803e-18
1.138262521e-15
1.301579009e-15
1.322827851e-15
1.212627623e-15
0
0
0
1.09297178e-14
1.552706052e-14
1.331266048e-14
0
0
0
0
0
0
0
0
0
0
0
0
0
0
0
0
0
0
0
0
0
0
0
0
0
2.330318326e-19
2.112808916e-19
1.773110746e-19
1.553591736e-20
4.13932629e-21
0
0
0
0
0
0
0
0
0
0
0
0
0
0
0
0
0
0
0
0
1.439946663e-16
1.182349077e-15
1.267043539e-15
1.129697385e-15
0