/*--------------------------------*- C++ -*----------------------------------*\
  =========                 |
  \\      /  F ield         | OpenFOAM: The Open Source CFD Toolbox
   \\    /   O peration     | Website:  https://openfoam.org
    \\  /    A nd           | Version:  10
     \\/     M anipulation  |
\*---------------------------------------------------------------------------*/
FoamFile
{
    format      ascii;
    class       volScalarField;
    location    "0.0250188088";
    object      HCCO;
}
// * * * * * * * * * * * * * * * * * * * * * * * * * * * * * * * * * * * * * //

dimensions      [0 0 0 0 0 0 0];

internalField   nonuniform List<scalar> 
5170
(
0
0
0
0
0
0
0
0
0
0
0
0
0
0
0
0
0
0
0
0
0
0
0
0
0
0
0
0
0
0
0
0
0
0
0
0
0
0
0
0
0
0
0
0
0
0
0
0
0
0
0
0
0
0
0
0
0
0
0
0
0
0
0
0
0
0
0
0
0
0
0
0
0
0
0
0
0
0
0
0
0
0
0
0
0
0
0
0
0
0
0
0
0
0
0
0
0
0
0
0
4.984230105e-19
4.178021743e-19
4.321110709e-19
3.464653066e-19
1.953741612e-17
0
6.738042803e-19
3.605178099e-18
0
2.748646728e-18
1.092871152e-18
2.39709088e-19
1.132844075e-17
0
3.892753325e-19
8.260581542e-20
0
1.017695035e-17
2.925303034e-19
1.876482675e-19
5.812231541e-18
4.373581983e-18
4.059321525e-18
0
0
0
2.221592274e-17
4.786599854e-18
0
0
0
0
0
5.708862782e-15
7.358541597e-13
6.611112188e-14
5.319581445e-13
1.905792336e-14
1.36370781e-12
0
0
6.44974115e-13
4.665714322e-13
0
0
0
2.166522099e-11
1.504965049e-11
2.062669645e-12
1.957761004e-14
2.485769382e-12
2.085771092e-11
1.543471538e-11
0
4.504101322e-12
6.371165515e-13
1.561728062e-12
1.425013915e-13
0
2.040517688e-12
6.850028637e-13
5.61873396e-14
0
8.128384369e-13
8.639472619e-12
3.901710519e-12
0
0
4.661796689e-12
1.457269155e-11
1.043817847e-11
2.810335786e-12
2.42057509e-12
8.055451051e-12
8.586350857e-12
1.143092371e-11
7.411987662e-12
6.945664885e-12
1.200913839e-11
7.076816209e-12
7.652774132e-12
1.183776515e-11
1.116603869e-11
8.354142293e-12
9.065623059e-12
5.308583974e-12
7.650850012e-12
7.236095581e-12
5.317463346e-12
6.278425719e-12
6.955070717e-11
1.988531576e-11
7.327774347e-12
6.737669773e-12
2.86768491e-12
7.147219703e-09
1.339378751e-09
1.730201663e-10
3.290112624e-11
1.598971901e-12
0
0
0
0
6.31497773e-11
0
0
6.555167617e-12
1.006302788e-10
3.232544097e-09
0
0
9.673206309e-12
1.385570166e-10
2.760866296e-09
0
1.341069342e-13
1.185685514e-11
2.182872693e-10
3.668890843e-09
0
2.249991717e-12
3.481564846e-11
5.323303362e-10
7.877649353e-09
0
5.817988126e-12
5.025450608e-11
8.656576108e-10
1.016702677e-08
8.300966747e-13
1.133096449e-11
6.81253865e-11
9.656264913e-10
8.884205276e-09
1.523686824e-12
1.212634488e-11
7.678384115e-11
8.76006376e-10
6.654363645e-09
1.34897301e-12
5.602995683e-12
8.508320988e-11
8.280388311e-10
5.74764759e-09
1.880321401e-12
8.897090737e-12
1.172800784e-10
1.052292656e-09
7.179160519e-09
5.375266813e-12
2.347800772e-11
1.783329278e-10
1.411018533e-09
8.882500289e-09
4.35576947e-12
2.904965408e-11
2.416759559e-10
1.648147876e-09
9.165738247e-09
0
3.942582646e-11
2.825723124e-10
1.662697362e-09
8.236098688e-09
9.05566916e-12
5.52625187e-11
3.447220914e-10
1.874708255e-09
8.941977248e-09
2.01754543e-11
8.811454279e-11
4.45960363e-10
2.226823647e-09
9.95481108e-09
2.710543517e-11
1.112357535e-10
5.20598063e-10
2.351239393e-09
9.709688447e-09
5.528730797e-11
1.596724986e-10
6.590879137e-10
2.714901323e-09
1.067555935e-08
9.76223987e-11
2.293012017e-10
7.534812278e-10
2.721165331e-09
1.036500557e-08
1.281001091e-10
3.262505509e-10
1.091973065e-09
3.713566755e-09
1.558737921e-08
2.322357856e-10
5.161370548e-10
1.626998479e-09
5.455860694e-09
1.835508223e-08
3.205994489e-10
5.835088821e-10
1.476714197e-09
4.016413699e-09
1.086215089e-08
3.717565636e-10
5.325535153e-10
9.921315928e-10
2.034385276e-09
4.258095179e-09
2.775654558e-10
3.37776706e-10
4.898110271e-10
7.78915318e-10
1.286908103e-09
1.332985558e-10
1.485204733e-10
1.81039716e-10
2.366709403e-10
3.2106065e-10
4.550730452e-11
4.793840401e-11
5.296880263e-11
6.036664016e-11
7.061375886e-11
1.288791937e-11
1.302417732e-11
1.367543731e-11
1.44356927e-11
1.483658715e-11
3.812794464e-12
3.829343705e-12
3.83326734e-12
3.761972159e-12
3.665179641e-12
1.137692072e-12
1.129299402e-12
1.102482726e-12
1.056815607e-12
9.953190827e-13
3.381880884e-13
3.343230804e-13
3.249848374e-13
3.070894173e-13
2.812851783e-13
1.007122423e-13
9.974481383e-14
9.719844902e-14
9.173911231e-14
8.3984554e-14
2.586317287e-14
2.596546816e-14
2.615326218e-14
2.609179573e-14
2.496327522e-14
8.954886311e-15
8.908723167e-15
8.791991885e-15
8.583909935e-15
8.197780003e-15
3.304545466e-15
3.267664998e-15
3.192135497e-15
3.09859852e-15
2.988910091e-15
1.532657744e-15
1.526845292e-15
1.514685497e-15
1.500980648e-15
1.489868545e-15
1.004961783e-15
1.004628091e-15
1.002068707e-15
1.007054716e-15
1.020168726e-15
8.011191972e-16
8.110843143e-16
8.33454403e-16
8.685720932e-16
9.170481203e-16
7.107003193e-16
7.206360863e-16
7.420934187e-16
7.738088219e-16
8.146261029e-16
4.689065182e-16
4.76673991e-16
4.931611396e-16
5.170083347e-16
5.475100587e-16
2.422572451e-16
2.451693947e-16
2.510778749e-16
2.591654151e-16
2.670494366e-16
9.449496871e-17
9.621087232e-17
9.848886597e-17
9.90445769e-17
9.562088125e-17
5.231715007e-18
5.253978284e-18
4.92567601e-18
3.402048471e-18
0
0
0
0
0
0
0
2.07919104e-18
4.631920158e-18
4.53843814e-18
3.521504162e-18
0
0
0
0
0
0
0
0
0
0
0
0
0
0
0
0
0
0
0
0
0
0
0
0
0
0
0
0
0
0
0
0
0
0
0
0
0
0
0
0
0
0
0
0
0
0
0
0
0
0
0
0
0
0
0
0
0
0
0
0
0
0
0
0
0
0
0
0
0
0
0
0
0
0
0
0
0
0
0
0
0
0
0
0
0
0
0
0
0
0
2.277283569e-21
2.151239984e-21
1.886048328e-21
1.516966854e-21
1.182075674e-21
0
0
0
0
0
4.110529267e-19
4.141988223e-19
4.165797941e-19
4.140400086e-19
3.942070909e-19
4.304995994e-19
4.338650884e-19
4.360909367e-19
4.328929529e-19
4.113213779e-19
4.209167773e-19
4.219126073e-19
4.172707061e-19
3.927600327e-19
2.721611716e-19
1.757151207e-21
2.060661394e-21
2.286415232e-21
2.331744796e-21
1.734104353e-21
8.589922734e-21
8.685399776e-21
9.006073282e-21
9.656811326e-21
1.089330038e-20
3.014119884e-20
2.879676729e-20
2.588324095e-20
2.155657387e-20
1.643772416e-20
5.899276478e-21
3.928218649e-21
0
0
0
5.216158002e-10
3.698375738e-08
1.989866922e-08
2.585318906e-08
5.321736515e-08
5.834838957e-08
4.137225788e-08
2.725333451e-08
2.318455381e-08
2.915646231e-08
3.410009227e-08
3.185113019e-08
2.625019488e-08
2.833238065e-08
2.95187607e-08
2.745363125e-08
2.716274817e-08
3.25325863e-08
4.512327761e-08
4.531432187e-08
2.256884982e-08
7.332035846e-09
1.870884437e-09
4.061023666e-10
8.033602955e-11
1.547533798e-11
3.6211279e-12
9.554595293e-13
2.60509592e-13
7.881408858e-14
2.378574084e-14
7.889536488e-15
2.923484087e-15
1.490930192e-15
1.035749384e-15
9.573228211e-16
8.472586031e-16
5.722236166e-16
2.74142872e-16
8.427517943e-17
0
0
2.276725324e-18
0
0
0
0
0
0
0
0
0
0
0
0
0
0
0
0
0
0
1.094433043e-21
0
3.703605178e-19
3.856414514e-19
2.423976833e-19
2.102570798e-21
1.248037024e-20
1.395510388e-20
0
1.953302828e-09
8.976488427e-09
1.088136777e-09
6.430031544e-10
2.360072328e-11
2.084194988e-07
3.485612329e-06
2.000889615e-07
8.969075286e-09
6.569485431e-10
8.011084998e-08
6.458484735e-07
1.29315565e-07
1.027444082e-08
1.555586924e-09
1.17258917e-07
1.422841729e-06
1.554399935e-05
1.172813624e-06
5.877067867e-08
2.386545767e-07
2.832023218e-06
2.921202234e-05
2.872574247e-06
2.171894366e-07
2.3933323e-07
2.250337944e-06
1.802622766e-05
2.399554579e-06
2.231667875e-07
1.413289871e-07
1.208211714e-06
7.885153671e-06
1.330211661e-06
1.6320063e-07
8.826382731e-08
6.303937452e-07
3.732224194e-06
7.871109161e-06
9.973812764e-07
7.713913776e-08
6.24725205e-07
4.331013316e-06
2.36556668e-05
3.23215248e-06
9.569816671e-08
7.110169143e-07
4.702811268e-06
2.519563922e-05
4.345679605e-06
1.083758919e-07
7.107609451e-07
4.428630757e-06
2.339555503e-05
4.353103999e-06
9.445401857e-08
5.929454985e-07
3.407148792e-06
1.670868196e-05
5.027851538e-06
7.361701848e-08
5.174717006e-07
2.696176645e-06
1.276188612e-05
1.390520093e-05
7.991256609e-08
4.888425427e-07
2.372247467e-06
1.105134739e-05
2.309883455e-05
7.693324623e-08
4.321114639e-07
2.126957329e-06
9.598001448e-06
2.378014553e-05
7.158082379e-08
3.777674892e-07
1.946464901e-06
8.405752182e-06
2.26858843e-05
6.756906798e-08
3.38387142e-07
1.761190131e-06
7.301073369e-06
2.074890188e-05
8.21078957e-08
4.082209906e-07
1.853882957e-06
7.530966566e-06
2.001095413e-05
1.130720986e-07
5.528245859e-07
2.467667245e-06
9.813549507e-06
2.185737556e-05
1.085223555e-07
4.728735927e-07
1.784829297e-06
5.532094804e-06
5.516373785e-06
4.859685847e-08
1.663571899e-07
4.848761813e-07
1.103312938e-06
1.251787166e-06
1.373543492e-08
3.592105639e-08
8.139945635e-08
1.472834172e-07
1.568711378e-07
3.030659268e-09
6.098599291e-09
1.085525351e-08
1.600747145e-08
1.569069541e-08
5.737517286e-10
9.088837252e-10
1.296929769e-09
1.595562971e-09
1.442352891e-09
1.034043402e-10
1.303476613e-10
1.532139428e-10
1.600125997e-10
1.331368859e-10
1.717606602e-11
1.827072234e-11
1.776731515e-11
1.558037639e-11
1.179457986e-11
3.696443164e-12
3.497360827e-12
3.025346589e-12
2.390980901e-12
1.709019593e-12
9.321312426e-13
8.274990013e-13
6.845000489e-13
4.95442381e-13
3.065263219e-13
2.389397384e-13
2.214024377e-13
1.816506489e-13
1.328933182e-13
6.939267904e-14
7.255352787e-14
5.959262514e-14
4.748170016e-14
3.965573558e-14
2.60432418e-14
2.256482594e-14
1.916136855e-14
1.446703246e-14
1.267929401e-14
9.769999813e-15
7.600298004e-15
6.668389405e-15
5.166322144e-15
4.305224718e-15
3.701692633e-15
2.879131049e-15
2.660043669e-15
2.422888677e-15
2.115757986e-15
1.864744165e-15
1.509928962e-15
1.441718787e-15
1.363107835e-15
1.3159092e-15
1.375326641e-15
1.064003763e-15
1.117339298e-15
1.181790866e-15
1.240321573e-15
1.357711613e-15
1.01436423e-15
1.111719627e-15
1.190501156e-15
1.332271356e-15
1.567798922e-15
8.98626081e-16
9.861484925e-16
1.070403319e-15
1.18497817e-15
1.251944009e-15
6.131478429e-16
6.759937116e-16
6.641637125e-16
6.588329051e-16
7.110519531e-16
2.864702379e-16
2.78890099e-16
2.480674896e-16
2.231546206e-16
2.688146057e-16
6.242701202e-17
3.164748788e-17
0
5.740961557e-18
1.810315207e-17
0
0
0
2.264819972e-18
1.773193464e-18
0
8.503237913e-19
1.053277956e-18
0
0
1.116269539e-18
0
0
0
0
0
0
0
0
0
0
0
0
0
0
0
0
0
0
0
0
0
7.76436019e-18
8.717979805e-18
3.161653543e-18
7.027298319e-20
1.492397924e-18
2.135124402e-18
3.73901225e-19
0
0
0
0
0
0
0
0
0
0
0
0
0
0
0
0
0
0
0
0
0
0
0
0
0
0
0
0
0
0
0
0
0
0
0
0
0
0
0
0
0
0
0
0
0
0
0
0
0
0
0
0
0
0
0
0
0
0
0
0
0
0
0
0
0
0
6.544097124e-22
1.451724441e-21
0
0
4.883444341e-20
1.911875867e-21
5.445446819e-20
3.843959944e-19
4.404420767e-19
4.630775176e-19
4.43601815e-19
4.671309555e-19
4.768633652e-19
4.801999522e-19
4.803096739e-19
4.578375018e-19
4.744212825e-19
4.685810578e-19
4.456917983e-19
3.091074012e-19
2.732513446e-19
2.686160171e-19
2.316955895e-19
3.666877889e-20
6.605484306e-21
2.689649995e-21
2.818271146e-21
1.793935521e-21
0
1.067399001e-21
1.324863207e-20
1.936689775e-20
1.786375069e-20
1.202518834e-20
4.86929193e-21
8.724066722e-21
4.003206562e-21
0
0
0
0
0
0
0
0
6.121018147e-14
0
0
0
0
0
0
0
0
0
0
0
0
0
0
0
0
0
0
0
0
0
0
0
0
0
0
0
0
0
0
0
0
0
0
0
0
0
0
0
0
0
0
0
0
0
0
0
0
0
0
0
0
0
0
0
0
0
0
0
2.813282738e-12
9.79363143e-14
0
0
0
0
0
0
0
0
0
0
0
0
0
0
0
0
0
0
0
0
0
0
0
0
0
0
0
0
0
0
0
0
0
0
0
0
0
0
0
0
0
0
0
0
0
0
0
0
0
0
0
0
0
0
0
0
0
0
1.100068021e-11
0
0
0
0
0
0
0
0
0
0
0
0
0
0
0
0
0
0
0
0
0
0
0
0
0
0
0
0
0
0
0
0
0
0
0
0
0
0
0
0
0
0
0
0
0
0
0
0
0
0
0
0
0
0
0
0
0
0
0
9.526061805e-10
3.704364979e-12
3.197646529e-13
0
0
0
0
0
0
0
0
0
0
0
0
0
0
0
0
0
0
0
0
0
0
0
0
0
0
0
0
0
0
0
0
0
0
0
0
0
0
0
0
0
0
0
0
0
0
0
0
0
0
0
0
0
0
0
0
0
7.745844615e-09
6.947886128e-11
6.546309561e-13
1.569173851e-13
0
0
0
0
0
0
0
0
0
0
0
0
0
0
0
0
0
0
0
0
0
0
0
0
0
0
0
0
0
0
0
0
0
0
0
0
0
0
0
0
0
0
0
0
0
0
0
0
0
0
0
0
0
0
0
0
1.6222009e-08
3.837747989e-10
3.269829686e-12
7.746363996e-13
4.584034167e-14
0
0
0
0
0
0
0
0
0
0
0
0
0
0
0
0
0
0
0
0
0
0
0
0
0
0
0
0
0
0
0
0
0
0
0
0
0
0
0
0
0
0
0
0
0
0
0
0
0
0
0
0
0
0
0
1.533412928e-08
8.49117327e-10
2.010529678e-11
2.751735749e-13
8.965601617e-14
0
0
0
0
0
0
0
0
0
0
0
0
0
0
0
0
0
0
0
0
0
0
0
0
0
0
0
0
0
0
0
0
0
0
0
0
0
0
0
0
0
0
0
0
0
0
0
0
0
0
0
0
0
0
0
7.861246578e-08
5.068409078e-09
1.726027926e-10
3.47868836e-12
0
0
0
0
0
0
0
0
0
0
0
0
0
0
0
0
0
0
0
0
0
0
0
0
0
0
0
0
0
0
0
0
0
0
0
0
0
0
0
0
0
0
0
0
0
0
0
0
0
0
0
0
0
0
0
0
2.852668016e-07
2.101127136e-08
1.055662082e-09
3.550612163e-11
7.904387737e-13
3.063480387e-13
1.136739062e-14
0
0
0
0
0
0
0
0
0
0
0
0
0
0
0
0
0
0
0
0
0
0
0
0
0
0
0
0
0
0
0
0
0
0
0
0
0
0
0
0
0
0
0
0
0
0
0
0
0
0
0
0
0
4.749748942e-07
3.529446777e-08
2.815339105e-09
1.437902578e-10
5.84148373e-12
1.445213222e-13
7.244032799e-14
0
0
0
0
0
0
0
0
0
0
0
0
0
0
0
0
0
0
0
0
0
0
0
0
0
0
0
0
0
0
0
0
0
0
0
0
0
0
0
0
0
0
0
0
0
0
0
0
0
0
0
0
0
6.214660919e-07
5.89636892e-08
6.264579404e-09
4.501250852e-10
2.616324286e-11
1.006975275e-12
3.086772258e-13
1.631594071e-14
0
0
0
0
0
0
0
0
0
0
0
0
0
0
0
0
0
0
0
0
0
0
0
0
0
0
0
0
0
0
0
0
0
0
0
0
0
0
0
0
0
0
0
0
0
0
0
0
0
0
0
0
6.870021973e-07
7.14518434e-08
8.340424309e-09
1.101156683e-09
8.652199763e-11
4.588903645e-12
1.110431295e-13
5.310595619e-14
0
0
0
0
0
0
0
0
0
0
0
0
0
0
0
0
0
0
0
0
0
0
0
0
0
0
0
0
0
0
0
0
0
0
0
0
0
0
0
0
0
0
0
0
0
0
0
0
0
0
0
0
1.997051656e-06
2.254355659e-07
2.083408973e-08
3.60494815e-09
3.036489776e-10
1.821172302e-11
5.810653454e-13
1.617214687e-13
5.633118659e-15
0
0
0
0
0
0
0
0
0
0
0
0
0
0
0
0
0
0
0
0
0
0
0
0
0
0
0
0
0
0
0
0
0
0
0
0
0
0
0
0
0
0
0
0
0
0
0
0
0
0
0
3.666433507e-06
4.818681605e-07
4.902537691e-08
8.09859751e-09
8.219135406e-10
5.791457738e-11
2.402507755e-12
4.940805594e-13
2.951503395e-14
0
0
0
0
0
0
0
0
0
0
0
0
0
0
0
0
0
0
0
0
0
0
0
0
0
0
0
0
0
0
0
0
0
0
0
0
0
0
0
0
0
0
0
0
0
0
0
0
0
0
0
4.229668232e-06
6.901153605e-07
8.411343509e-08
1.345615047e-08
1.785758061e-09
1.396948437e-10
6.996335447e-12
2.4214576e-13
7.41528048e-14
5.72725421e-16
0
0
0
0
0
0
0
0
0
0
0
0
0
0
0
0
0
0
0
0
0
0
0
0
0
0
0
0
0
0
0
0
0
0
0
0
0
0
0
0
0
0
0
0
0
0
0
0
0
0
4.443164714e-06
7.346033916e-07
1.028752601e-07
1.632925915e-08
2.698788388e-09
2.282586538e-10
1.309746348e-11
4.336448493e-13
9.282631499e-14
1.993415327e-15
0
0
0
0
0
0
0
0
0
0
0
0
0
0
0
0
0
0
0
0
0
0
0
0
0
0
0
0
0
0
0
0
0
0
0
0
0
0
0
0
0
0
0
0
0
0
0
0
0
0
4.673770127e-06
8.204005982e-07
1.240533654e-07
2.142024217e-08
2.893710481e-09
2.509695635e-10
1.531846267e-11
8.841489205e-13
1.259539688e-13
3.256495238e-15
0
0
0
0
0
0
0
0
0
0
0
0
0
0
0
0
0
0
0
0
0
0
0
0
0
0
0
0
0
0
0
0
0
0
0
0
0
0
0
0
0
0
0
0
0
0
0
0
0
0
4.435834064e-06
8.131642747e-07
1.272297892e-07
5.03991821e-08
4.002158103e-09
2.465237778e-10
1.300249967e-11
6.148889736e-13
6.777651498e-14
7.916495217e-16
0
0
0
0
0
0
0
0
0
0
0
0
0
0
0
0
0
0
0
0
0
0
0
0
0
0
0
0
0
0
0
0
0
0
0
0
0
0
0
0
0
0
0
0
0
0
0
0
0
0
4.76256503e-06
9.039618565e-07
1.32533223e-07
1.500470473e-08
1.210834346e-09
8.18769758e-11
4.839986297e-12
6.066249301e-13
5.675233699e-14
1.404952031e-14
0
0
0
0
0
0
0
0
0
0
0
0
0
0
0
0
0
0
0
0
0
0
0
0
0
0
0
0
0
0
0
0
0
0
0
0
0
0
0
0
0
0
0
0
0
0
0
0
0
0
2.325376675e-06
4.945945792e-07
8.191877802e-08
8.834648051e-09
6.913584356e-10
4.334263804e-11
2.453091773e-12
2.20493763e-13
4.940353438e-14
1.594485542e-14
9.522559456e-16
0
0
0
0
0
0
0
0
0
0
0
0
0
0
0
0
0
0
0
0
0
0
0
0
0
0
0
0
0
0
0
0
0
0
0
0
0
0
0
0
0
0
0
0
0
0
0
0
0
5.571165532e-07
1.216296728e-07
1.884565204e-08
2.126957564e-09
1.853135944e-10
1.377527847e-11
1.219485458e-12
4.951145112e-14
2.393206043e-14
5.492025906e-15
1.141082847e-14
0
0
0
0
0
0
0
0
0
0
0
0
0
0
0
0
0
0
0
0
0
0
0
0
0
0
0
0
0
0
0
0
0
0
0
0
0
0
0
0
0
0
0
0
0
0
0
0
0
7.005602866e-08
1.692407438e-08
2.880740767e-09
3.699399141e-10
3.855045025e-11
3.497318458e-12
3.256005816e-14
1.47421598e-14
3.054308256e-15
0
1.425545569e-15
7.819168845e-15
0
0
0
0
0
0
0
0
0
0
0
0
0
0
0
0
0
0
0
0
0
0
0
0
0
0
0
0
0
0
0
0
0
0
0
0
0
0
0
0
0
0
0
0
0
0
0
0
7.320774813e-09
1.972873332e-09
3.806943884e-10
5.721386636e-11
7.226406159e-12
8.342001952e-13
1.347776971e-13
1.426403111e-14
1.977917567e-15
8.539657865e-16
0
5.813750144e-16
6.123282144e-15
0
0
0
0
0
0
0
0
0
0
0
0
0
0
0
0
0
0
0
0
0
0
0
0
0
0
0
0
0
0
0
0
0
0
0
0
0
0
0
0
0
0
0
0
0
0
0
7.184052289e-10
2.163922435e-10
4.790022911e-11
8.547549233e-12
1.331340201e-12
1.899993973e-13
1.074644498e-14
4.060391744e-15
2.894106188e-15
2.067798266e-15
1.921954204e-15
0
5.207903296e-16
5.665887311e-15
0
0
0
0
0
0
0
0
0
0
0
0
0
0
0
0
0
0
0
0
0
0
0
0
0
0
0
0
0
0
0
0
0
0
0
0
0
0
0
0
0
0
0
0
0
0
7.021319454e-11
2.365355692e-11
5.445829744e-12
1.221315558e-12
2.510323533e-13
6.238819409e-14
1.602602616e-14
4.624698196e-15
1.530945343e-15
4.360062528e-16
1.399064834e-15
1.230337188e-15
7.422229012e-16
1.073815109e-15
6.796462211e-15
0
0
0
0
0
0
0
0
0
0
0
0
0
0
0
0
0
0
0
0
0
0
0
0
0
0
0
0
0
0
0
0
0
0
0
0
0
0
0
0
0
0
0
0
0
6.55183764e-12
2.5968514e-12
8.541630461e-13
3.01532854e-13
7.586496253e-14
1.843685371e-14
6.459872102e-15
9.476667429e-16
3.21964728e-16
8.944560628e-16
2.997457914e-16
9.887014706e-16
0
2.198066374e-15
6.911677565e-15
8.139614873e-15
0
0
0
0
0
0
0
0
0
0
0
0
0
0
0
0
0
0
0
0
0
0
0
0
0
0
0
0
0
0
0
0
0
0
0
0
0
0
0
0
0
0
0
0
1.03421772e-12
4.573616347e-13
1.750862965e-13
1.148987772e-14
1.564996037e-14
0
2.274790621e-15
0
4.154815509e-16
1.114621101e-15
1.018697492e-15
3.488333932e-16
1.044143164e-15
0
0
6.528875216e-15
1.025494077e-14
0
0
0
0
0
0
0
0
0
0
0
0
0
0
0
0
0
0
0
0
0
0
0
0
0
0
0
0
0
0
0
0
0
0
0
0
0
0
0
0
0
0
0
2.312202516e-13
1.258467612e-13
5.348093284e-14
2.040594125e-14
9.690432843e-15
3.939261263e-15
2.121153054e-15
5.168192839e-16
0
9.177243179e-16
7.344867315e-16
2.503259847e-16
1.020437935e-15
9.399535047e-16
0
0
6.781860966e-15
1.035684905e-14
0
0
0
0
0
0
0
0
0
0
0
0
0
0
0
0
0
0
0
0
0
0
0
0
0
0
0
0
0
0
0
0
0
0
0
0
0
0
0
0
0
0
5.168187219e-14
2.897075392e-14
1.675410689e-14
8.426599299e-15
4.168072822e-15
2.383881467e-15
1.599530008e-15
9.86343899e-16
0
0
0
3.291827527e-16
2.68342252e-16
9.578582581e-16
1.099889127e-15
2.455502412e-16
3.367021548e-15
8.808575912e-15
0
0
0
0
0
0
0
0
0
0
0
0
0
0
0
0
0
0
0
0
0
0
0
0
0
0
0
0
0
0
0
0
0
0
0
0
0
0
0
0
0
0
9.148250143e-15
1.029045762e-14
6.558726698e-15
2.815655835e-15
2.158755981e-15
1.535099099e-15
1.143520645e-15
8.618057344e-16
9.065559059e-17
1.392113322e-15
8.018411355e-17
8.939564711e-16
1.499838627e-15
3.751129549e-16
1.194575911e-15
0
0
5.393880683e-15
9.263690596e-15
0
0
0
0
0
0
0
0
0
0
0
0
0
0
0
0
0
0
0
0
0
0
0
0
0
0
0
0
0
0
0
0
0
0
0
0
0
0
0
0
0
6.586607787e-15
4.540118215e-15
2.571973565e-15
5.189637965e-16
1.361450279e-15
1.018536509e-15
9.43541329e-16
9.189514334e-16
1.077697171e-15
1.20390941e-15
1.069322643e-15
1.515928555e-15
8.562097227e-16
3.469872465e-16
8.898757665e-16
9.659665994e-16
0
0
6.212572837e-15
1.011675667e-14
0
0
0
0
0
0
0
0
0
0
0
0
0
0
0
0
0
0
0
0
0
0
0
0
0
0
0
0
0
0
0
0
0
0
0
0
0
0
0
0
2.758451192e-15
2.098661481e-15
1.398250657e-15
1.356354542e-15
1.284843418e-15
1.294894654e-15
1.772132884e-15
1.21953194e-15
1.184988108e-15
1.40819568e-15
1.028545843e-15
1.127503687e-15
7.67962899e-16
0
0
0
0
4.703452501e-16
7.947291912e-15
1.017078502e-14
0
0
0
0
0
0
0
0
0
0
0
0
0
0
0
0
0
0
0
0
0
0
0
0
0
0
0
0
0
0
0
0
0
0
0
0
0
0
0
0
1.687909825e-15
1.486496269e-15
1.294099133e-15
1.227523262e-15
1.43136953e-15
1.453176273e-15
2.073822013e-15
1.713084639e-15
1.311890255e-15
1.052459517e-15
7.528066537e-16
4.83246154e-16
2.440593718e-16
8.951074904e-17
0
8.236846524e-16
9.926002424e-16
0
0
5.896825431e-15
9.63760934e-15
0
0
0
0
0
0
0
0
0
0
0
0
0
0
0
0
0
0
0
0
0
0
0
0
0
0
0
0
0
0
0
0
0
0
0
0
0
0
0
1.401969824e-15
1.438760934e-15
1.483197995e-15
1.489676232e-15
1.826632067e-15
1.687373789e-15
1.837153666e-15
2.051566906e-15
1.200955512e-15
7.32251198e-16
4.424830454e-16
2.508516349e-16
3.652747213e-16
3.604780949e-16
0
0
3.039323808e-16
3.668789705e-15
4.999796845e-15
1.321010701e-14
1.516820509e-14
1.239368957e-14
0
0
0
0
0
0
0
0
0
0
0
0
0
0
0
0
0
0
0
0
0
0
0
0
0
0
0
0
0
0
0
0
0
0
0
0
0
0
1.599345254e-15
1.853061698e-15
1.791127718e-15
1.675861392e-15
1.955502351e-15
1.931948085e-15
1.82737606e-15
2.009924383e-15
1.147410765e-15
6.510287122e-16
4.494185468e-16
3.089278515e-16
3.828216979e-16
2.76924802e-16
2.994987864e-16
0
1.206820377e-15
1.132611567e-15
0
0
8.331742866e-15
1.115698448e-14
0
0
0
0
0
0
0
0
0
0
0
0
0
0
0
0
0
0
0
0
0
0
0
0
0
0
0
0
0
0
0
0
0
0
0
0
0
0
2.004108522e-15
2.055083361e-15
1.875471276e-15
1.50738616e-15
1.479690072e-15
1.312756411e-15
1.26244491e-15
1.608480456e-15
9.026800513e-16
5.196386738e-16
4.067115824e-16
3.030209242e-16
4.628708658e-16
3.054711243e-16
4.177866245e-16
0
0
1.894774655e-16
2.613645991e-15
2.461260636e-15
8.362909153e-15
1.210730193e-14
1.121910885e-14
0
0
0
0
0
0
0
0
0
0
0
0
0
0
0
0
0
0
0
0
0
0
0
0
0
0
0
0
0
0
0
0
0
0
0
0
0
1.458711632e-15
1.584894664e-15
1.113792586e-15
7.617418096e-16
6.114857161e-16
6.01904136e-16
6.73241931e-16
1.127653646e-15
5.264446507e-16
2.440618453e-16
1.883010407e-16
1.186968654e-16
2.307838671e-16
1.584578996e-16
2.728081178e-16
0
0
0
2.388536095e-15
5.895784424e-16
0
9.039529696e-15
1.097305589e-14
0
0
0
0
0
0
0
0
0
0
0
0
0
0
0
0
0
0
0
0
0
0
0
0
0
0
0
0
0
0
0
0
0
0
0
0
0
8.795901341e-16
1.005938989e-15
5.425828547e-16
2.359339588e-16
1.296127732e-16
1.835224607e-16
3.101935837e-16
8.157494208e-16
2.87131984e-16
6.35790377e-17
4.178470919e-17
0
1.501676762e-17
1.840629482e-17
1.383614417e-16
5.172967714e-16
1.052552421e-15
3.435298006e-16
2.355277335e-15
7.635414597e-16
4.329177963e-16
0
9.508297592e-15
1.037570124e-14
0
0
0
0
0
0
0
0
0
0
0
0
0
0
0
0
0
0
0
0
0
0
0
0
0
0
0
0
0
0
0
0
0
0
0
0
4.425140329e-16
2.604141221e-16
9.330823197e-17
0
2.701270565e-17
3.554224136e-17
4.058610907e-18
3.633464341e-17
1.99471899e-18
0
8.73015177e-18
0
8.862241392e-18
1.320889208e-16
7.881135431e-17
2.183775691e-16
0
1.076780276e-16
2.379964846e-16
2.330400301e-15
4.209155686e-16
0
9.854801182e-15
1.407292353e-14
9.583975574e-15
0
0
0
0
0
0
0
0
0
0
0
0
0
0
0
0
0
0
0
0
0
0
0
0
0
0
0
0
0
0
0
0
0
0
0
4.539044962e-17
4.818667289e-18
0
0
4.587435475e-19
3.188089771e-17
0
9.004226563e-18
0
0
1.858770923e-18
0
3.944131738e-18
1.302149344e-16
2.418622398e-17
0
0
0
0
2.439218438e-15
1.873704365e-15
1.102947331e-15
0
1.227973906e-14
1.258279858e-14
0
0
0
0
0
0
0
0
0
0
0
0
0
0
0
0
0
0
0
0
0
0
0
0
0
0
0
0
0
0
0
0
0
0
0
0
0
0
3.887262296e-18
0
0
0
7.838716476e-18
0
0
5.984432522e-19
0
2.917006736e-18
1.204072318e-16
0
3.23269688e-18
4.060417341e-16
1.098906348e-15
7.713129191e-16
2.004658853e-15
2.645708288e-15
6.204466149e-16
0
1.240298546e-14
1.591498559e-14
1.277353239e-14
0
0
0
0
0
0
0
0
0
0
0
0
0
0
0
0
0
0
0
0
0
0
0
0
0
0
0
0
0
0
0
0
0
0
0
0
0
3.13261935e-19
3.13076724e-17
0
0
7.769751247e-18
0
0
9.50519019e-19
0
2.832371832e-18
1.184268642e-16
0
3.202875166e-18
4.437535066e-16
1.750454823e-15
4.216398106e-16
2.068939132e-15
3.423676424e-15
2.782163707e-15
2.249316492e-15
0
1.072546717e-14
1.185523749e-14
0
0
0
0
0
0
0
0
0
0
0
0
0
0
0
0
0
0
0
0
0
0
0
0
0
0
0
0
0
0
0
0
0
0
0
0
3.842976711e-18
1.834036302e-18
3.209443438e-17
1.228056082e-18
1.818653361e-17
4.571318918e-18
0
0
0
0
5.430910118e-18
1.149980819e-16
0
0
0
3.16076696e-16
8.410186929e-18
8.810570426e-17
2.00906036e-15
2.918627906e-15
6.449248571e-16
0
1.015706939e-14
1.462523523e-14
1.229086998e-14
0
0
0
0
0
0
0
0
0
0
0
0
0
0
0
0
0
0
0
0
0
0
0
0
0
0
0
0
0
0
0
0
0
0
3.759150396e-18
2.037834193e-18
3.124449349e-17
0
0
8.170925015e-18
0
0
0
0
0
2.294802707e-19
2.936143009e-17
0
0
5.351726861e-19
3.86690042e-16
1.268167076e-15
6.067786517e-16
1.640407015e-15
2.089943904e-15
2.962176096e-17
0
6.704725211e-15
1.226280568e-14
1.217206405e-14
0
0
0
0
0
0
0
0
0
0
0
0
0
0
0
0
0
0
0
0
0
0
0
0
0
0
0
0
0
0
0
0
0
2.515942437e-18
7.092138126e-19
0
0
0
0
7.406223842e-18
0
0
0
0
0
0
8.345484576e-18
0
2.505751704e-19
3.039030929e-18
4.440638156e-16
1.873114658e-15
6.620588938e-16
1.495721898e-15
1.636888428e-15
2.067251026e-15
9.29849987e-16
0
1.049133556e-14
1.484302122e-14
1.238192764e-14
0
0
0
0
0
0
0
0
0
0
0
0
0
0
0
0
0
0
0
0
0
0
0
0
0
0
0
0
0
0
0
0
0
0
0
0
0
2.686709237e-18
0
0
0
5.841351405e-19
0
0
1.84986818e-18
2.841926248e-17
1.28410024e-16
4.013608164e-18
0
1.91322101e-16
1.139127463e-15
1.664927191e-16
4.666268833e-17
1.505381986e-15
1.981106905e-15
8.346776011e-17
0
9.345994639e-15
1.418534187e-14
1.289752663e-14
0
0
0
0
0
0
0
0
0
0
0
0
0
0
0
0
0
0
0
0
0
0
0
0
0
0
0
0
0
0
0
0
0
0
0
0
0
0
0
0
0
6.256435659e-19
0
0
1.918592664e-18
4.06052559e-17
1.485732575e-16
1.158846859e-17
0
0
0
0
3.770833445e-17
1.56625842e-15
2.31105387e-15
1.093360532e-15
0
0
1.053661169e-14
1.356414646e-14
7.431174947e-15
0
0
0
0
0
0
0
0
0
0
0
0
0
0
0
0
0
0
0
0
0
0
0
0
0
0
0
0
0
0
0
0
0
0
0
0
0
0
0
0
6.38081747e-19
0
0
2.253398005e-18
4.704431511e-17
1.567743579e-16
2.258616236e-17
1.319932316e-19
0
2.712796231e-17
5.147241558e-16
1.445541233e-16
1.427006928e-15
1.780207125e-15
2.266644374e-15
1.386797475e-15
0
9.8363832e-15
1.454975818e-14
1.259124299e-14
0
0
0
0
0
0
0
0
0
0
0
0
0
0
0
0
0
0
0
0
0
0
0
0
0
0
0
0
0
0
0
0
0
0
0
0
0
0
0
3.350299307e-19
1.961261095e-19
0
0
6.903058985e-18
5.18857167e-17
1.619192343e-16
3.123089175e-17
9.377783943e-18
0
2.681924275e-16
1.430558005e-15
3.27495641e-16
2.666416622e-16
1.918914914e-15
3.035414949e-15
1.874124864e-15
0
0
9.723710613e-15
1.116530415e-14
0
0
0
0
0
0
0
0
0
0
0
0
0
0
0
0
0
0
0
0
0
0
0
0
0
0
0
0
0
0
0
0
0
0
0
0
0
0
0
4.638180913e-19
5.460260473e-19
1.302207923e-19
0
6.309313399e-18
4.66487085e-17
1.538544726e-16
2.463642434e-17
4.80208003e-18
0
9.491876909e-17
5.410100676e-16
7.50736015e-17
5.05649941e-17
1.564798055e-15
2.190085777e-15
3.986536434e-16
0
0
9.817297661e-15
1.418080243e-14
1.187811847e-14
0
0
0
0
0
0
0
0
0
0
0
0
0
0
0
0
0
0
0
0
0
0
0
0
0
0
0
0
0
0
0
0
0
0
0
0
0
0
0
3.913158337e-19
3.868384159e-19
0
2.254103369e-18
3.472780946e-17
1.386235605e-16
1.806977989e-17
3.327733458e-20
0
0
0
0
2.857644329e-17
1.394292545e-15
1.678471443e-15
2.058651714e-15
1.15140724e-15
0
8.428085081e-15
1.336421616e-14
1.24318536e-14
0
0
0
0
0
0
0
0
0
0
0
0
0
0
0
0
0
0
0
0
0
0
0
0
0
0
0
0
0
0
0
0
0
0
0
0
0
0
4.270195019e-21
3.931656151e-19
3.088445743e-19
0
6.006951286e-19
2.575431548e-17
1.406908638e-16
1.297034776e-17
0
0
0
0
0
0
8.051322757e-17
1.770280878e-15
2.889226692e-15
1.785080361e-15
0
0
1.273516016e-14
1.589459085e-14
1.248218937e-14
0
0
0
0
0
0
0
0
0
0
0
0
0
0
0
0
0
0
0
0
0
0
0
0
0
0
0
0
0
0
0
0
0
0
0
0
0
3.918735342e-19
4.201749627e-19
3.091573589e-19
0
5.024389515e-19
2.494450068e-17
1.431866857e-16
1.288367111e-17
0
0
0
0
0
0
3.378843114e-17
1.548344707e-15
2.148224906e-15
2.886571559e-15
0
0
1.214004326e-14
1.59603652e-14
1.346751562e-14
0
0
0
0
0
0
0
0
0
0
0
0
0
0
0
0
0
0
0
0
0
0
0
0
0
0
0
0
0
0
0
0
0
0
0
0
0
3.985289709e-19
4.15930533e-19
1.770714429e-19
0
0
7.493863266e-18
6.687738509e-17
3.543215303e-18
0
0
0
0
0
0
3.475936277e-17
1.543533659e-15
2.127451194e-15
2.953478833e-15
2.384072641e-15
0
0
1.124944259e-14
1.399470227e-14
8.147503485e-15
0
0
0
0
0
0
0
0
0
0
0
0
0
0
0
0
0
0
0
0
0
0
0
0
0
0
0
0
0
0
0
0
0
0
0
3.910360598e-19
4.273263092e-19
3.970576378e-19
0
0
0
2.223240163e-18
5.73399102e-17
3.541178828e-18
0
0
0
0
0
0
1.458441464e-19
7.533070506e-16
2.128973308e-15
3.377187746e-15
2.698597313e-15
0
0
1.036211577e-14
1.506941727e-14
1.288503969e-14
0
0
0
0
0
0
0
0
0
0
0
0
0
0
0
0
0
0
0
0
0
0
0
0
0
0
0
0
0
0
0
0
0
0
2.477036672e-20
4.046359235e-19
4.231713267e-19
2.442877385e-19
0
0
0
0
0
0
0
0
0
0
0
0
0
4.216135337e-17
1.498937923e-15
1.779943636e-15
1.849506145e-15
0
0
8.519243021e-15
1.335974217e-14
1.237558961e-14
0
0
0
0
0
0
0
0
0
0
0
0
0
0
0
0
0
0
0
0
0
0
0
0
0
0
0
0
0
0
0
0
6.479166143e-21
0
4.090640379e-19
4.450044065e-19
3.975980806e-19
0
0
0
0
0
0
0
0
0
0
0
0
0
0
2.952699269e-17
1.479765549e-15
1.832976604e-15
2.251843941e-15
1.867484636e-15
0
0
1.06256484e-14
1.477249391e-14
1.207903872e-14
0
0
0
0
0
0
0
0
0
0
0
0
0
0
0
0
0
0
0
0
0
0
0
0
0
0
0
0
0
0
8.31027118e-21
0
4.161876538e-19
4.642217456e-19
4.471105723e-19
2.640515687e-19
0
0
0
0
0
0
0
0
0
0
0
0
0
0
2.946857946e-17
1.462363232e-15
1.906505801e-15
2.832619377e-15
3.003585775e-15
0
0
1.018557284e-14
1.504195513e-14
1.320832713e-14
0
0
0
0
0
0
0
0
0
0
0
0
0
0
0
0
0
0
0
0
0
0
0
0
0
0
0
0
0
0
0
2.673976674e-20
4.157963417e-19
4.425972499e-19
2.711678235e-19
0
0
0
0
0
0
0
0
0
0
0
0
0
0
0
0
1.837902358e-16
1.550024775e-15
2.051248577e-15
2.806599982e-15
0
0
8.683472832e-15
1.410290853e-14
1.475382851e-14
7.774668258e-15
0
0
0
0
0
0
0
0
0
0
0
0
0
0
0
0
0
0
0
0
0
0
0
0
0
0
3.280708311e-21
8.233538988e-21
0
4.107759353e-19
4.59064263e-19
4.638503715e-19
4.153060963e-19
2.870037093e-20
0
0
0
0
0
0
0
0
0
0
0
0
0
0
0
0
2.48503033e-17
1.400496036e-15
1.574415991e-15
1.526125936e-15
0
0
0
1.090232926e-14
1.544554535e-14
1.299914763e-14
0
0
0
0
0
0
0
0
0
0
0
0
0
0
0
0
0
0
0
0
0
0
0
0
0
0
0
3.491217873e-20
4.126419287e-19
4.66266688e-19
4.662567519e-19
4.156642598e-19
3.525742232e-20
0
0
0
0
0
0
7.62874869e-18
1.038402326e-18
0
0
0
0
0
0
0
0
0
2.745051256e-17
1.404754394e-15
1.59988981e-15
1.845252485e-15
1.463204583e-15
0
0
1.024811178e-14
1.515170964e-14
1.33069619e-14
0
0
0
0
0
0
0
0
0
0
0
0
0
0
0
0
0
0
0
0
0
0
0
0
0
0
4.065083068e-19
4.613909941e-19
4.786183656e-19
4.697740119e-19
4.16147555e-19
3.84231089e-20
0
0
0
0
0
0
0
0
0
0
0
0
0
0
0
0
0
0
2.685378249e-17
1.400316979e-15
1.669450439e-15
2.315249943e-15
2.401200048e-15
0
0
8.844721303e-15
1.464369469e-14
1.616975827e-14
1.198169645e-14
0
0
0
0
0
0
0
0
0
0
0
0
0
0
0
0
0
0
0
0
0
0
0
0
0
4.863930281e-19
4.879750401e-19
4.642760324e-19
2.850226504e-19
3.342355444e-20
0
0
0
0
0
0
0
0
0
0
0
0
0
0
0
0
0
0
0
2.402293331e-17
1.375512938e-15
1.571996082e-15
1.590428018e-15
9.364049041e-16
0
0
0
1.101124118e-14
1.566507465e-14
1.340027329e-14
0
0
0
0
0
0
0
0
0
0
0
0
0
0
0
0
0
0
0
0
0
0
0
0
0
4.785912791e-19
4.497942764e-19
2.723440309e-19
2.901919563e-20
0
0
0
0
0
0
0
0
0
0
0
0
0
0
0
0
0
0
0
0
0
1.596629756e-16
1.423778649e-15
1.526995966e-15
1.359190436e-15
0
0
0
1.036177298e-14
1.525680298e-14
1.334812157e-14
0
0
0
0
0
0
0
0
0
0
0
0
0
0
0
0
0
0
0
0
0
0
0
0
0
2.60552738e-19
3.220346126e-20
4.706385126e-21
0
0
0
0
0
0
0
0
0
0
0
0
0
0
0
0
0
0
0
0
0
0
2.363369078e-17
1.382988e-15
1.503814418e-15