/*--------------------------------*- C++ -*----------------------------------*\
  =========                 |
  \\      /  F ield         | OpenFOAM: The Open Source CFD Toolbox
   \\    /   O peration     | Website:  https://openfoam.org
    \\  /    A nd           | Version:  10
     \\/     M anipulation  |
\*---------------------------------------------------------------------------*/
FoamFile
{
    format      ascii;
    class       volScalarField;
    location    "0.0250188088";
    object      HCO;
}
// * * * * * * * * * * * * * * * * * * * * * * * * * * * * * * * * * * * * * //

dimensions      [0 0 0 0 0 0 0];

internalField   nonuniform List<scalar> 
5170
(
0
0
0
0
0
0
0
0
0
0
0
0
0
0
0
0
0
0
0
0
0
0
0
0
0
0
0
0
0
0
0
0
0
0
0
0
0
0
0
0
0
0
0
0
0
0
0
0
0
0
0
0
0
0
0
0
0
0
0
0
0
0
0
0
0
0
0
0
0
0
0
0
0
0
0
0
0
0
0
0
0
0
0
0
0
0
0
0
0
0
0
0
0
0
0
0
0
0
0
4.367468432e-13
1.867302529e-10
1.845514731e-10
1.83956425e-10
1.832342629e-10
1.833313719e-10
7.706783981e-11
8.863614038e-11
8.496407452e-11
8.36341621e-11
6.945940687e-11
3.169620284e-11
4.302815328e-11
3.844597165e-11
3.542618623e-11
2.567608962e-11
1.530235548e-11
2.246306668e-11
1.968239553e-11
1.724202156e-11
1.1947215e-11
8.419714847e-12
1.276802248e-11
1.162657533e-11
9.261921721e-12
6.694708522e-12
6.640406628e-12
8.30292227e-12
7.657937741e-12
5.388925785e-12
2.542771743e-12
3.215756678e-12
5.680764662e-12
5.830458188e-12
4.9656088e-12
4.184917099e-12
3.827592854e-12
5.433845853e-12
2.582460952e-12
5.815327104e-12
0
0
4.114061887e-12
5.837506807e-12
0
0
0
5.585159802e-11
1.393178135e-11
0
2.25836162e-13
1.504130535e-12
4.586645833e-11
0
0
4.428180163e-13
3.596390356e-13
3.230418388e-12
0
1.754532627e-13
6.9383297e-12
7.265214985e-13
5.856986495e-13
4.150117949e-13
1.416661813e-12
3.433010944e-11
1.412583875e-11
1.521815621e-12
1.105724103e-12
1.528279118e-11
6.867640525e-11
4.629700987e-11
1.13842297e-11
7.407730043e-12
3.295430777e-11
4.154537408e-11
5.481970271e-11
3.354175787e-11
2.957736763e-11
5.934246573e-11
4.642520533e-11
3.976744841e-11
6.024790451e-11
5.623418028e-11
4.678385901e-11
7.983497881e-11
3.657647784e-11
4.220586426e-11
4.139196547e-11
4.249302794e-11
4.915663042e-11
8.055000034e-11
5.295674309e-11
4.262583439e-11
6.854660841e-11
1.310196841e-11
3.525285512e-10
2.160534677e-09
3.135038256e-10
7.82044809e-11
4.687816031e-12
0
0
1.112577e-12
2.380088685e-11
5.837277074e-10
0
0
5.989183099e-12
7.49398958e-11
1.954511738e-09
0
2.555564854e-13
9.766550808e-12
1.102979067e-10
1.919131884e-09
0
7.315874422e-13
1.212705009e-11
1.454839368e-10
1.936475262e-09
0
1.00058793e-12
8.667989975e-12
1.908537634e-10
2.083676781e-09
0
1.995415415e-12
1.645034952e-11
2.338262565e-10
2.148287308e-09
1.322057774e-13
3.861041548e-12
2.459763449e-11
2.676168762e-10
2.110167035e-09
2.036827367e-13
3.778182964e-12
3.310744618e-11
2.90536116e-10
1.998995497e-09
0
4.366541739e-13
4.332355264e-11
3.252712882e-10
2.048055243e-09
5.010694326e-13
5.310459225e-12
5.329426961e-11
3.401772881e-10
1.914218685e-09
2.321157343e-12
1.163190697e-11
6.632158235e-11
3.770356543e-10
1.987134038e-09
3.372936828e-12
1.548689228e-11
8.144449925e-11
4.206621457e-10
2.049686817e-09
4.204298784e-12
2.143509377e-11
9.842954969e-11
4.645257617e-10
2.095480364e-09
9.53059975e-12
2.913986059e-11
1.204292532e-10
5.352863797e-10
2.294920818e-09
1.61929801e-11
4.160292208e-11
1.513126394e-10
6.29792567e-10
2.525208989e-09
2.259172651e-11
5.298443799e-11
1.805196773e-10
6.875560073e-10
2.524515006e-09
3.651995595e-11
7.465223374e-11
2.347085196e-10
8.204464792e-10
2.821173476e-09
6.112667032e-11
1.142325291e-10
3.103066531e-10
9.522981195e-10
3.04888912e-09
1.031599562e-10
1.948307786e-10
5.220762685e-10
1.52732268e-09
5.012148328e-09
2.211616962e-10
3.868552871e-10
9.740353511e-10
2.778675697e-09
8.294127466e-09
4.235978631e-10
6.379867967e-10
1.298878824e-09
2.980400551e-09
7.114297216e-09
7.020944499e-10
8.85562579e-10
1.371172775e-09
2.364680571e-09
4.27810487e-09
7.343219556e-10
8.287890751e-10
1.054089181e-09
1.446310877e-09
2.068334662e-09
4.591689989e-10
4.881891758e-10
5.487374113e-10
6.428627861e-10
7.706705702e-10
1.886888701e-10
1.935629199e-10
2.029514085e-10
2.152486561e-10
2.298110863e-10
6.095195967e-11
6.111964879e-11
6.187249095e-11
6.23715545e-11
6.177407635e-11
1.99454297e-11
1.988981094e-11
1.96480388e-11
1.911929055e-11
1.834388164e-11
6.651417392e-12
6.593801072e-12
6.437025436e-12
6.17365125e-12
5.828006318e-12
2.25583851e-12
2.232313952e-12
2.175743076e-12
2.072094002e-12
1.927723652e-12
7.802206349e-13
7.735050081e-13
7.561340074e-13
7.204722947e-13
6.706109381e-13
2.514182969e-13
2.509269183e-13
2.494745578e-13
2.454979194e-13
2.354619909e-13
1.018595855e-13
1.011669142e-13
9.951102076e-14
9.685764479e-14
9.288729724e-14
4.55837335e-14
4.521763038e-14
4.443810206e-14
4.341160638e-14
4.218809199e-14
2.646676979e-14
2.641238604e-14
2.629485075e-14
2.615355837e-14
2.602618113e-14
2.131164726e-14
2.13596229e-14
2.145318558e-14
2.165326061e-14
2.196116448e-14
2.109566709e-14
2.12546385e-14
2.160910767e-14
2.215122787e-14
2.287427258e-14
2.219618266e-14
2.241294125e-14
2.289073213e-14
2.361042425e-14
2.455617337e-14
2.094887686e-14
2.120727737e-14
2.177682079e-14
2.26432682e-14
2.379504667e-14
1.740820333e-14
1.766762586e-14
1.823381986e-14
1.908633366e-14
2.019566788e-14
1.15889054e-14
1.178482373e-14
1.219696601e-14
1.279286952e-14
1.358022476e-14
5.253656848e-15
5.327822335e-15
5.483728929e-15
5.708844275e-15
5.986391473e-15
3.230586806e-16
3.4909761e-16
4.044135351e-16
4.876973665e-16
6.554820185e-16
7.491679083e-16
1.094776469e-15
1.222390339e-15
1.257332943e-15
1.266738191e-15
6.484240234e-16
6.40403229e-16
6.0853079e-16
5.539593097e-16
4.742542206e-16
9.972619464e-20
0
0
0
0
3.325451779e-16
3.226868753e-16
2.962056459e-16
2.33981478e-16
8.262613871e-17
0
0
0
0
0
9.549096048e-16
9.349886294e-16
8.928129654e-16
8.291243626e-16
7.49463033e-16
6.359989381e-16
6.241006418e-16
5.973065675e-16
5.556867084e-16
5.026874355e-16
2.252863087e-16
2.196514376e-16
2.040047455e-16
1.606757251e-16
1.410894984e-16
0
0
0
9.980694597e-18
6.930192401e-18
1.138360204e-16
1.111102733e-16
1.130517897e-16
1.280207803e-16
1.703945055e-16
9.396058764e-16
9.242397634e-16
8.982823029e-16
8.697667588e-16
8.524059234e-16
1.584696976e-15
1.580338432e-15
1.629624511e-15
1.582490903e-15
1.506994898e-15
2.356517296e-15
2.319978675e-15
2.243206852e-15
2.129528536e-15
1.981664132e-15
2.9342311e-15
2.885255069e-15
2.771521355e-15
2.54929907e-15
2.333995556e-15
3.431622643e-15
3.365157524e-15
3.228262853e-15
3.034982782e-15
2.804972313e-15
4.877272646e-15
4.794032577e-15
4.621719421e-15
4.376614608e-15
4.078439935e-15
7.979924106e-15
7.864029666e-15
7.621117957e-15
7.269731298e-15
6.834100219e-15
1.256999348e-14
1.240695403e-14
1.205976242e-14
1.155071999e-14
1.090181935e-14
1.697939338e-14
1.683990973e-14
1.655075741e-14
1.61457985e-14
1.564458455e-14
2.186256202e-14
2.177892415e-14
2.160817068e-14
2.136922748e-14
2.107397548e-14
2.245175976e-14
2.242259859e-14
2.232506869e-14
2.203013903e-14
2.129722419e-14
2.254751303e-14
2.244067265e-14
2.221201224e-14
2.18673896e-14
2.13895247e-14
2.687225432e-14
2.663311233e-14
2.612497484e-14
2.537962167e-14
2.440370535e-14
3.971815055e-14
3.934744504e-14
3.855978672e-14
3.739218864e-14
3.577442997e-14
5.447988064e-14
5.400417823e-14
5.301788584e-14
5.161115153e-14
4.981267168e-14
6.86980248e-14
6.806675864e-14
6.670910179e-14
6.468664372e-14
6.200430343e-14
7.460651234e-14
7.403375747e-14
7.280335176e-14
7.097837642e-14
6.856532198e-14
8.786129137e-14
8.754545718e-14
8.68756417e-14
8.588470584e-14
8.450687472e-14
3.443084897e-09
1.851486316e-08
1.2871835e-08
1.151361444e-08
1.148423601e-08
1.079398168e-08
9.532576252e-09
8.226589896e-09
7.956440534e-09
6.829666121e-09
6.804378248e-09
6.558102443e-09
6.315029006e-09
6.694350138e-09
6.894586506e-09
6.502648723e-09
6.659491917e-09
8.153318916e-09
1.247745885e-08
1.922969954e-08
1.369848978e-08
6.663247995e-09
2.702233241e-09
8.838146499e-10
2.423056157e-10
6.179637324e-11
1.784782754e-11
5.598100051e-12
1.818610389e-12
6.374804542e-13
2.267415031e-13
8.99470932e-14
4.142738574e-14
2.60079526e-14
2.222878902e-14
2.344196803e-14
2.530066211e-14
2.47279723e-14
2.107070111e-14
1.414982998e-14
6.197747217e-15
9.306283716e-16
1.250172998e-15
4.015429837e-16
0
0
0
6.896066355e-16
4.653311048e-16
1.212451621e-16
0
2.032129129e-16
8.333248793e-16
1.425074507e-15
1.857101108e-15
2.139422079e-15
2.628795098e-15
3.845098792e-15
6.511623415e-15
1.038309578e-14
1.523724198e-14
2.082205391e-14
2.051627032e-14
2.093111484e-14
2.355046606e-14
3.447115481e-14
4.830047183e-14
5.975446771e-14
6.655074769e-14
8.34223043e-14
1.095182887e-08
3.404449521e-08
1.569377331e-09
1.575751352e-09
8.932298715e-11
9.408074374e-08
1.454714493e-06
9.414945828e-08
2.931261018e-09
8.722135408e-10
5.253757558e-08
4.620079798e-07
1.024947475e-07
7.816436275e-09
4.80694965e-09
4.737137326e-08
4.834596203e-07
3.525025175e-06
2.729801694e-07
2.942658523e-08
4.598042964e-08
4.547404668e-07
3.550947613e-06
3.831240862e-07
2.810015884e-08
4.112451887e-08
3.592475651e-07
2.447214687e-06
3.631561411e-07
3.723388632e-08
3.3209301e-08
2.727651057e-07
1.551904722e-06
3.083114802e-07
4.459182258e-08
2.718674851e-08
1.98891561e-07
1.073938453e-06
1.634372632e-06
2.20897136e-07
2.526620826e-08
1.720211892e-07
9.718123669e-07
3.145275004e-06
4.933404177e-07
2.084551775e-08
1.423859451e-07
7.694540148e-07
2.792676995e-06
5.137663951e-07
2.020341832e-08
1.223789313e-07
6.317686673e-07
2.282463103e-06
4.80815328e-07
1.853245693e-08
1.095267478e-07
5.472218389e-07
1.874231096e-06
7.543942255e-07
1.719702589e-08
1.032331389e-07
4.754608217e-07
1.681010643e-06
2.421495219e-06
1.792952194e-08
9.907455587e-08
4.182611165e-07
1.468816743e-06
2.428570096e-06
1.716512011e-08
8.710621766e-08
3.696317533e-07
1.265307041e-06
2.198619028e-06
1.599419354e-08
7.534105546e-08
3.328993218e-07
1.098645236e-06
1.972564046e-06
1.564780961e-08
6.941415855e-08
3.073443249e-07
9.824094322e-07
1.833304743e-06
1.933730317e-08
8.525171584e-08
3.308774681e-07
1.030121182e-06
1.868616531e-06
2.8996377e-08
1.251781251e-07
4.760299729e-07
1.470414702e-06
2.810394421e-06
4.434451334e-08
1.864337297e-07
6.812809308e-07
1.946989046e-06
1.626207988e-06
2.766931922e-08
8.913237027e-08
2.54801306e-07
6.041905674e-07
8.781924423e-07
1.125491712e-08
2.602321768e-08
5.46121282e-08
9.770313939e-08
1.211572715e-07
3.856269621e-09
6.499907498e-09
9.974967025e-09
1.334405807e-08
1.368080403e-08
1.096202114e-09
1.421251215e-09
1.676824788e-09
1.769481093e-09
1.554941856e-09
2.747924195e-10
2.949802935e-10
2.913455826e-10
2.608570954e-10
2.042885563e-10
6.416130515e-11
6.206611055e-11
5.486828651e-11
4.424911456e-11
3.225479029e-11
1.773419017e-11
1.618325902e-11
1.358415992e-11
1.055103763e-11
7.611601973e-12
5.439953784e-12
4.817725016e-12
4.012533216e-12
3.034997399e-12
2.108315374e-12
1.711143989e-12
1.564189728e-12
1.308870155e-12
1.006912441e-12
6.538174652e-13
6.002913253e-13
5.119939691e-13
4.233685922e-13
3.56045456e-13
2.59027408e-13
2.177596486e-13
1.90923348e-13
1.544215593e-13
1.351411258e-13
1.08995832e-13
8.712820036e-14
7.888726002e-14
6.582960642e-14
5.673616964e-14
4.974315286e-14
4.082078225e-14
3.855611247e-14
3.60337172e-14
3.291088885e-14
3.023436549e-14
2.611647751e-14
2.557550703e-14
2.505068985e-14
2.490634961e-14
2.573746918e-14
2.259060135e-14
2.34122915e-14
2.452670131e-14
2.592032493e-14
2.820985841e-14
2.417046874e-14
2.569897417e-14
2.767954931e-14
3.05113272e-14
3.438207504e-14
2.633371512e-14
2.846975754e-14
3.115538751e-14
3.454607437e-14
3.863142174e-14
2.610959412e-14
2.880325751e-14
3.188263565e-14
3.473712398e-14
3.759263799e-14
2.240605299e-14
2.474970076e-14
2.697004508e-14
2.89855233e-14
3.104373328e-14
1.505203389e-14
1.638403321e-14
1.750462189e-14
1.866469017e-14
2.012419334e-14
6.632991192e-15
7.480145292e-15
8.490893119e-15
1.02723361e-14
1.109958845e-14
1.468465014e-15
3.049810325e-15
3.782944792e-15
3.914645092e-15
3.671386164e-15
1.254816321e-15
1.173970751e-15
1.048765538e-15
7.325397765e-16
4.154354024e-16
2.724460576e-16
1.069825371e-16
0
6.913905714e-19
0
9.302856477e-18
1.396352276e-16
0
0
0
0
0
0
0
9.051704788e-17
0
0
1.398907775e-16
2.69616629e-16
2.630821382e-16
5.937724804e-16
5.141056855e-16
4.339908333e-16
3.029128665e-16
1.850372603e-16
4.096232015e-16
3.203281405e-16
2.634581474e-16
2.868775653e-16
6.031948359e-18
6.901985465e-17
0
0
0
0
0
0
0
1.256105439e-17
9.209899654e-17
1.408298781e-16
1.4329278e-16
1.599798377e-16
1.559772595e-16
1.128561794e-16
6.836658536e-16
5.301358774e-16
3.810681183e-16
3.286726149e-16
3.062914272e-16
1.229512467e-15
1.076021103e-15
8.191944568e-16
5.913404128e-16
3.991432208e-16
1.648175887e-15
1.316723099e-15
9.070456492e-16
4.818252996e-16
2.5863914e-16
1.741428208e-15
1.319229732e-15
9.34951171e-16
6.009544617e-16
3.373428807e-16
2.251575061e-15
1.736185863e-15
1.261306787e-15
8.405315629e-16
4.924443365e-16
3.371331952e-15
2.686442018e-15
2.0271129e-15
1.412213703e-15
9.382184029e-16
5.84929416e-15
4.76375144e-15
3.65460594e-15
2.62286594e-15
1.581745058e-15
9.512834809e-15
8.17054549e-15
6.888402559e-15
5.81816234e-15
5.009661541e-15
1.453351361e-14
1.353685352e-14
1.279467271e-14
1.238876336e-14
1.241738638e-14
2.034660892e-14
1.975840534e-14
1.948388349e-14
1.974104538e-14
2.057928878e-14
1.966316466e-14
2.156545575e-14
2.107843551e-14
2.030187545e-14
1.996792598e-14
2.01848186e-14
1.90082955e-14
1.774167228e-14
1.655286894e-14
1.55736328e-14
2.216502472e-14
1.986096068e-14
1.75461641e-14
1.52630702e-14
1.29598602e-14
3.224490346e-14
2.851913044e-14
2.462985938e-14
2.090423838e-14
1.726824553e-14
4.583344512e-14
4.167169119e-14
3.702409857e-14
3.104878927e-14
2.432696082e-14
5.61239352e-14
4.959382048e-14
4.286221362e-14
3.596131093e-14
2.908365738e-14
6.33363452e-14
5.768699505e-14
5.18540854e-14
4.649915807e-14
4.189391065e-14
8.160634001e-14
7.868701669e-14
7.685587077e-14
7.56932833e-14
7.421795106e-14
3.094657568e-13
1.035748756e-14
0
0
0
0
0
0
0
0
0
0
0
0
0
0
0
0
0
0
0
0
0
0
0
0
0
0
0
0
0
0
0
0
0
0
0
0
0
0
0
0
0
0
0
0
0
0
0
0
0
0
0
0
0
0
0
0
0
0
5.062755472e-12
1.37213157e-12
0
0
0
0
0
0
0
0
0
0
0
0
0
0
0
0
0
0
0
0
0
0
0
0
0
0
0
0
0
0
0
0
0
0
0
0
0
0
0
0
0
0
0
0
0
0
0
0
0
0
0
0
0
0
0
0
0
0
3.659568761e-11
2.28082069e-16
0
0
0
0
0
0
0
0
0
0
0
0
0
0
0
0
0
0
0
0
0
0
0
0
0
0
0
0
0
0
0
0
0
0
0
0
0
0
0
0
0
0
0
0
0
0
0
0
0
0
0
0
0
0
0
0
0
0
5.847588344e-10
4.184582508e-12
5.46709427e-13
0
0
0
0
0
0
0
0
0
0
0
0
0
0
0
0
0
0
0
0
0
0
0
0
0
0
0
0
0
0
0
0
0
0
0
0
0
0
0
0
0
0
0
0
0
0
0
0
0
0
0
0
0
0
0
0
0
2.72316304e-09
4.253609951e-11
3.62217763e-13
2.084863388e-13
0
0
0
0
0
0
0
0
0
0
0
0
0
0
0
0
0
0
0
0
0
0
0
0
0
0
0
0
0
0
0
0
0
0
0
0
0
0
0
0
0
0
0
0
0
0
0
0
0
0
0
0
0
0
0
0
1.299957945e-08
4.803598348e-10
9.616248329e-12
2.916162982e-12
1.454909823e-13
0
0
0
0
0
0
0
0
0
0
0
0
0
0
0
0
0
0
0
0
0
0
0
0
0
0
0
0
0
0
0
0
0
0
0
0
0
0
0
0
0
0
0
0
0
0
0
0
0
0
0
0
0
0
0
1.772852534e-08
2.105494624e-09
8.566977104e-11
2.682553882e-12
1.012533373e-12
0
0
0
0
0
0
0
0
0
0
0
0
0
0
0
0
0
0
0
0
0
0
0
0
0
0
0
0
0
0
0
0
0
0
0
0
0
0
0
0
0
0
0
0
0
0
0
0
0
0
0
0
0
0
0
1.758160559e-08
6.52988496e-09
5.336562348e-10
2.338023201e-11
2.566701202e-12
5.943836978e-13
0
0
0
0
0
0
0
0
0
0
0
0
0
0
0
0
0
0
0
0
0
0
0
0
0
0
0
0
0
0
0
0
0
0
0
0
0
0
0
0
0
0
0
0
0
0
0
0
0
0
0
0
0
0
4.774776274e-08
1.362354915e-08
2.381055378e-09
1.728782271e-10
7.602073962e-12
3.177453773e-12
2.28460837e-13
0
0
0
0
0
0
0
0
0
0
0
0
0
0
0
0
0
0
0
0
0
0
0
0
0
0
0
0
0
0
0
0
0
0
0
0
0
0
0
0
0
0
0
0
0
0
0
0
0
0
0
0
0
5.645767588e-08
1.341695146e-08
7.520091682e-09
7.995556802e-10
5.208772378e-11
2.006678142e-12
8.540672998e-13
8.822904019e-15
0
0
0
0
0
0
0
0
0
0
0
0
0
0
0
0
0
0
0
0
0
0
0
0
0
0
0
0
0
0
0
0
0
0
0
0
0
0
0
0
0
0
0
0
0
0
0
0
0
0
0
0
6.01970239e-08
5.467310588e-09
1.553498735e-08
3.111206653e-09
2.590471991e-10
1.281291601e-11
3.780401367e-12
3.214703426e-13
0
0
0
0
0
0
0
0
0
0
0
0
0
0
0
0
0
0
0
0
0
0
0
0
0
0
0
0
0
0
0
0
0
0
0
0
0
0
0
0
0
0
0
0
0
0
0
0
0
0
0
0
1.245833441e-07
1.5843117e-08
1.830419154e-08
1.067798823e-08
1.052942038e-09
6.038380109e-11
1.862446036e-12
8.584437051e-13
3.717845927e-14
0
0
0
0
0
0
0
0
0
0
0
0
0
0
0
0
0
0
0
0
0
0
0
0
0
0
0
0
0
0
0
0
0
0
0
0
0
0
0
0
0
0
0
0
0
0
0
0
0
0
0
3.701433895e-07
4.297924989e-08
1.49267703e-08
2.980204663e-08
3.589398435e-09
2.292627424e-10
8.486243902e-12
2.258824439e-12
1.858052765e-13
0
0
0
0
0
0
0
0
0
0
0
0
0
0
0
0
0
0
0
0
0
0
0
0
0
0
0
0
0
0
0
0
0
0
0
0
0
0
0
0
0
0
0
0
0
0
0
0
0
0
0
4.326038257e-07
5.716046563e-08
1.396781042e-08
5.411771061e-08
9.970128556e-09
7.298949386e-10
3.231025072e-11
6.4489459e-12
4.640931713e-13
4.059422788e-15
0
0
0
0
0
0
0
0
0
0
0
0
0
0
0
0
0
0
0
0
0
0
0
0
0
0
0
0
0
0
0
0
0
0
0
0
0
0
0
0
0
0
0
0
0
0
0
0
0
0
4.41492618e-07
6.568118006e-08
1.626348909e-08
6.760453783e-08
2.23015116e-08
1.769267234e-09
8.958148358e-11
3.760337832e-12
9.47744412e-13
3.907880087e-14
0
0
0
0
0
0
0
0
0
0
0
0
0
0
0
0
0
0
0
0
0
0
0
0
0
0
0
0
0
0
0
0
0
0
0
0
0
0
0
0
0
0
0
0
0
0
0
0
0
0
4.3936181e-07
7.922269575e-08
2.072057739e-08
7.534404281e-08
3.576413951e-08
2.899525235e-09
1.620246497e-10
6.891122619e-12
1.150181572e-12
5.540050715e-14
0
0
0
0
0
0
0
0
0
0
0
0
0
0
0
0
0
0
0
0
0
0
0
0
0
0
0
0
0
0
0
0
0
0
0
0
0
0
0
0
0
0
0
0
0
0
0
0
0
0
5.029166064e-07
1.078359499e-07
3.392285314e-08
1.303795365e-07
3.492245348e-08
2.820683379e-09
1.714931146e-10
1.023302244e-11
1.497528698e-12
6.188219169e-14
0
0
0
0
0
0
0
0
0
0
0
0
0
0
0
0
0
0
0
0
0
0
0
0
0
0
0
0
0
0
0
0
0
0
0
0
0
0
0
0
0
0
0
0
0
0
0
0
0
0
4.731573935e-07
1.095270307e-07
6.449633654e-08
3.78763257e-07
3.316823429e-08
2.078199875e-09
1.16765868e-10
5.929212447e-12
8.723462156e-13
3.211606319e-14
0
0
0
0
0
0
0
0
0
0
0
0
0
0
0
0
0
0
0
0
0
0
0
0
0
0
0
0
0
0
0
0
0
0
0
0
0
0
0
0
0
0
0
0
0
0
0
0
0
0
6.350694389e-07
1.23181262e-07
3.879675102e-08
6.275437327e-08
6.658419315e-09
5.330616153e-10
3.677972854e-11
4.762731097e-12
4.821805372e-13
3.54432459e-13
2.734786749e-15
0
0
0
0
0
0
0
0
0
0
0
0
0
0
0
0
0
0
0
0
0
0
0
0
0
0
0
0
0
0
0
0
0
0
0
0
0
0
0
0
0
0
0
0
0
0
0
0
0
9.0774599e-07
3.738316948e-07
2.178968269e-07
2.835899397e-08
2.512740679e-09
1.839204354e-10
1.275384479e-11
1.365557339e-12
3.890069519e-13
3.484989398e-13
1.792950534e-13
0
0
0
0
0
0
0
0
0
0
0
0
0
0
0
0
0
0
0
0
0
0
0
0
0
0
0
0
0
0
0
0
0
0
0
0
0
0
0
0
0
0
0
0
0
0
0
0
0
5.992387833e-07
2.205835462e-07
4.508576746e-08
5.838054681e-09
5.740937716e-10
4.95715592e-11
5.15083204e-12
2.474866003e-13
2.133746322e-13
1.492134971e-13
3.742887444e-13
1.745117261e-13
0
0
0
0
0
0
0
0
0
0
0
0
0
0
0
0
0
0
0
0
0
0
0
0
0
0
0
0
0
0
0
0
0
0
0
0
0
0
0
0
0
0
0
0
0
0
0
0
7.946879707e-08
2.836878927e-08
6.100725249e-09
9.142550177e-10
1.101498506e-10
1.214719002e-11
4.908050366e-13
1.518627911e-13
5.55855773e-14
2.952358812e-14
4.723470683e-14
3.563000906e-13
1.673673503e-13
0
0
0
0
0
0
0
0
0
0
0
0
0
0
0
0
0
0
0
0
0
0
0
0
0
0
0
0
0
0
0
0
0
0
0
0
0
0
0
0
0
0
0
0
0
0
0
8.556412779e-09
3.182465285e-09
7.698660719e-10
1.390909249e-10
2.166165956e-11
3.358558267e-12
7.062490343e-13
1.181844319e-13
3.711120199e-14
9.244719076e-15
5.729393459e-16
3.205774566e-14
3.433961366e-13
1.54764648e-13
0
0
0
0
0
0
0
0
0
0
0
0
0
0
0
0
0
0
0
0
0
0
0
0
0
0
0
0
0
0
0
0
0
0
0
0
0
0
0
0
0
0
0
0
0
0
9.541629412e-10
3.758721339e-10
1.053814946e-10
2.399697574e-11
5.026123454e-12
1.03079e-12
1.791603017e-13
7.428409029e-14
4.99348755e-14
3.286994194e-14
1.53991836e-14
3.6970922e-15
2.98712771e-14
3.426382577e-13
1.283095137e-13
0
0
0
0
0
0
0
0
0
0
0
0
0
0
0
0
0
0
0
0
0
0
0
0
0
0
0
0
0
0
0
0
0
0
0
0
0
0
0
0
0
0
0
0
0
1.234176162e-10
5.248936429e-11
1.644643594e-11
4.954901245e-12
1.423713204e-12
4.649358903e-13
1.65648886e-13
5.716285935e-14
2.835041139e-14
2.600292693e-14
3.750587595e-14
1.155665268e-14
9.187404294e-15
3.736422609e-14
3.310550782e-13
8.896543913e-14
0
0
0
0
0
0
0
0
0
0
0
0
0
0
0
0
0
0
0
0
0
0
0
0
0
0
0
0
0
0
0
0
0
0
0
0
0
0
0
0
0
0
0
0
1.957429481e-11
9.410272534e-12
3.954810368e-12
1.686906243e-12
5.800915524e-13
1.97586025e-13
8.392649558e-14
2.817222921e-14
1.240725911e-14
2.52872587e-14
1.867684625e-14
3.578313447e-14
3.0681717e-15
4.267765628e-14
2.383458614e-13
3.357136832e-13
4.55910316e-14
0
0
0
0
0
0
0
0
0
0
0
0
0
0
0
0
0
0
0
0
0
0
0
0
0
0
0
0
0
0
0
0
0
0
0
0
0
0
0
0
0
0
0
4.875149198e-12
2.552201733e-12
1.207591363e-12
3.600153987e-13
2.130118208e-13
4.693016092e-14
4.194789691e-14
1.322622782e-14
1.446757361e-14
2.86597595e-14
3.353059852e-14
2.39581795e-14
3.663094546e-14
8.398504228e-17
0
4.478077336e-13
5.332410436e-13
1.158582414e-13
0
0
0
0
0
0
0
0
0
0
0
0
0
0
0
0
0
0
0
0
0
0
0
0
0
0
0
0
0
0
0
0
0
0
0
0
0
0
0
0
0
0
1.525859554e-12
9.076631785e-13
4.609402781e-13
2.251194945e-13
1.113392822e-13
5.53404581e-14
3.42775193e-14
2.077246769e-14
1.414205465e-14
3.011407473e-14
3.575218635e-14
3.375942157e-14
4.056660435e-14
8.624444983e-15
1.264583326e-15
0
5.166829367e-13
6.028058323e-13
1.242936253e-13
0
0
0
0
0
0
0
0
0
0
0
0
0
0
0
0
0
0
0
0
0
0
0
0
0
0
0
0
0
0
0
0
0
0
0
0
0
0
0
0
0
4.716717616e-13
2.877362258e-13
1.763178881e-13
9.826662271e-14
4.897361878e-14
3.488112923e-14
2.699907096e-14
2.180967748e-14
0
0
2.326669841e-14
3.325622078e-14
2.661418554e-14
4.002994046e-14
2.002569423e-14
5.869485473e-14
2.037632196e-13
4.637665257e-13
1.475883304e-13
0
0
0
0
0
0
0
0
0
0
0
0
0
0
0
0
0
0
0
0
0
0
0
0
0
0
0
0
0
0
0
0
0
0
0
0
0
0
0
0
0
1.44813522e-13
1.202474999e-13
8.007192262e-14
4.294398458e-14
3.337785273e-14
2.702751265e-14
2.405668935e-14
2.226696433e-14
1.509496011e-14
1.284618616e-15
2.225917355e-14
4.042297049e-14
4.909577322e-14
3.586971735e-14
2.662941349e-14
4.642261268e-16
0
4.585058482e-13
5.770435835e-13
1.812099193e-13
0
0
0
0
0
0
0
0
0
0
0
0
0
0
0
0
0
0
0
0
0
0
0
0
0
0
0
0
0
0
0
0
0
0
0
0
0
0
0
0
8.072719409e-14
5.89673663e-14
3.922752579e-14
1.986368034e-14
2.577284196e-14
2.415991808e-14
2.515155038e-14
2.738439858e-14
3.234753785e-14
3.613534394e-14
3.837400449e-14
4.446504968e-14
3.997759117e-14
3.114663249e-14
3.629690188e-14
8.81120842e-15
8.323033844e-16
0
5.618720257e-13
6.801049134e-13
2.040341741e-13
0
0
0
0
0
0
0
0
0
0
0
0
0
0
0
0
0
0
0
0
0
0
0
0
0
0
0
0
0
0
0
0
0
0
0
0
0
0
0
4.033988419e-14
3.317008087e-14
2.642544294e-14
2.577734179e-14
2.591893274e-14
2.756077945e-14
3.26519485e-14
3.233034802e-14
3.522653736e-14
4.05252757e-14
3.773673453e-14
3.609230259e-14
3.410441539e-14
2.047796666e-14
0
0
6.960185356e-15
1.152264472e-13
5.390202896e-13
6.876667282e-13
2.888636549e-13
2.472248509e-14
0
0
0
0
0
0
0
0
0
0
0
0
0
0
0
0
0
0
0
0
0
0
0
0
0
0
0
0
0
0
0
0
0
0
0
0
0
0
2.843598228e-14
2.695934273e-14
2.625208564e-14
2.693440614e-14
2.964208666e-14
3.221042353e-14
3.879131621e-14
3.989287218e-14
4.019773326e-14
4.152527035e-14
4.02320553e-14
3.646155018e-14
3.40544794e-14
3.083116867e-14
1.966867304e-14
3.538355774e-14
9.211566523e-15
6.05989145e-15
0
5.69219708e-13
6.993973676e-13
2.55810798e-13
2.361458643e-15
0
0
0
0
0
0
0
0
0
0
0
0
0
0
0
0
0
0
0
0
0
0
0
0
0
0
0
0
0
0
0
0
0
0
0
0
0
2.675973474e-14
2.839816372e-14
3.062890911e-14
3.320964918e-14
3.817591969e-14
4.029771561e-14
4.407593937e-14
4.907651031e-14
4.732065191e-14
4.563920583e-14
4.559039273e-14
4.364860524e-14
4.14899504e-14
4.301148879e-14
3.253176299e-14
0
3.028157602e-14
8.355094735e-14
2.239778768e-13
6.447842243e-13
8.9087947e-13
8.321588025e-13
2.667559619e-13
6.161234475e-16
0
0
0
0
0
0
0
0
0
0
0
0
0
0
0
0
0
0
0
0
0
0
0
0
0
0
0
0
0
0
0
0
0
0
0
0
3.166469672e-14
3.589028511e-14
3.931965307e-14
4.26362278e-14
4.800926858e-14
5.204218634e-14
5.493947683e-14
5.914558799e-14
5.661611992e-14
5.392756809e-14
5.386420248e-14
5.220857391e-14
4.910433294e-14
4.961638579e-14
4.77897605e-14
4.076256539e-14
3.620829874e-14
2.444897661e-14
1.402232954e-14
0
6.622994662e-13
8.519636801e-13
3.978305554e-13
7.440588001e-14
0
0
0
0
0
0
0
0
0
0
0
0
0
0
0
0
0
0
0
0
0
0
0
0
0
0
0
0
0
0
0
0
0
0
0
0
4.01925879e-14
4.428427822e-14
4.770316566e-14
5.046061931e-14
5.433957834e-14
5.898102654e-14
6.091900677e-14
6.495486814e-14
6.22689397e-14
5.823968187e-14
5.557616404e-14
5.440560581e-14
5.14198991e-14
4.919882711e-14
4.953327366e-14
3.886693595e-14
0
1.377758012e-14
2.730409179e-14
9.727403107e-14
4.450774999e-13
7.989296773e-13
8.361933722e-13
3.189046592e-13
1.614772355e-14
0
0
0
0
0
0
0
0
0
0
0
0
0
0
0
0
0
0
0
0
0
0
0
0
0
0
0
0
0
0
0
0
0
0
0
4.333716049e-14
4.829868158e-14
5.016583933e-14
5.123035828e-14
5.282628673e-14
5.767337606e-14
5.937125107e-14
6.315143853e-14
6.0312897e-14
5.60437388e-14
5.386308003e-14
5.012994333e-14
4.519174948e-14
4.172838103e-14
4.015651118e-14
2.564996999e-14
0
4.12006606e-15
1.763597975e-14
2.717573522e-14
5.124711599e-14
7.088527584e-13
9.2443131e-13
5.212538118e-13
1.688986916e-13
0
0
0
0
0
0
0
0
0
0
0
0
0
0
0
0
0
0
0
0
0
0
0
0
0
0
0
0
0
0
0
0
0
0
0
4.098512688e-14
4.466670043e-14
4.513172465e-14
4.474373131e-14
4.489472941e-14
4.858168424e-14
4.932414171e-14
5.248036961e-14
4.972679737e-14
4.660183719e-14
4.585491383e-14
3.955668296e-14
3.230415382e-14
2.707478874e-14
2.370923412e-14
2.164143964e-14
2.238874013e-14
1.686823881e-15
7.180724524e-15
2.427549308e-16
1.882158004e-14
0
7.61378211e-13
8.899669699e-13
4.05158681e-13
7.844302514e-14
0
0
0
0
0
0
0
0
0
0
0
0
0
0
0
0
0
0
0
0
0
0
0
0
0
0
0
0
0
0
0
0
0
0
3.38812961e-14
3.544903518e-14
3.567411775e-14
3.492816055e-14
3.646323968e-14
3.625340261e-14
3.473875184e-14
3.674754108e-14
3.297143856e-14
3.008819725e-14
2.974128879e-14
2.353679888e-14
1.718588489e-14
1.078543467e-14
9.428870977e-15
9.30205065e-15
1.122116492e-14
2.253241419e-15
1.745463755e-15
8.927230045e-15
1.308126345e-14
3.187970518e-15
7.822520082e-13
1.142659767e-12
1.06792977e-12
3.674701919e-13
1.346777191e-14
0
0
0
0
0
0
0
0
0
0
0
0
0
0
0
0
0
0
0
0
0
0
0
0
0
0
0
0
0
0
0
0
0
2.195049427e-14
2.250423664e-14
2.198765593e-14
2.014615008e-14
2.104228489e-14
2.055081801e-14
1.869171372e-14
2.024897783e-14
1.664348978e-14
1.424597434e-14
1.476837523e-14
9.839886971e-15
5.154805467e-15
9.663349564e-16
1.609259428e-15
1.240093134e-15
0
0
0
7.27089369e-15
5.028384941e-15
2.263250969e-14
0
8.463006616e-13
1.024584914e-12
5.093928738e-13
1.337787857e-13
0
0
0
0
0
0
0
0
0
0
0
0
0
0
0
0
0
0
0
0
0
0
0
0
0
0
0
0
0
0
0
0
0
1.1402172e-14
1.113021728e-14
1.050507166e-14
1.199885877e-14
1.037231933e-14
8.127081473e-15
7.138164696e-15
8.713330631e-15
5.579020653e-15
4.080410886e-15
5.876581395e-15
2.966443531e-15
8.027761902e-16
0
1.293127639e-15
1.184632617e-15
3.915016703e-15
1.248557327e-14
2.553113745e-15
7.353857307e-15
1.079702133e-14
1.568872138e-14
0
8.314808329e-13
1.198336148e-12
1.081189791e-12
4.287697058e-13
5.993109893e-14
0
0
0
0
0
0
0
0
0
0
0
0
0
0
0
0
0
0
0
0
0
0
0
0
0
0
0
0
0
0
0
0
3.020142249e-15
2.194691836e-15
8.065118096e-16
2.24760025e-15
2.457586391e-15
4.792463121e-16
1.127828438e-15
3.268000821e-15
1.031975715e-15
4.875783033e-16
1.968885149e-15
5.988962223e-16
1.955392676e-16
0
1.269346483e-15
1.104472881e-15
3.254791359e-15
1.604651524e-14
1.046383621e-15
7.36328257e-15
1.240712166e-14
2.047570969e-14
4.979972821e-14
1.21364529e-14
8.700545335e-13
1.059561905e-12
5.615994822e-13
1.744559859e-13
0
0
0
0
0
0
0
0
0
0
0
0
0
0
0
0
0
0
0
0
0
0
0
0
0
0
0
0
0
0
0
0
3.437130732e-16
2.727062995e-17
1.062370807e-15
8.528816475e-16
1.225384856e-15
6.284722412e-17
0
1.135864623e-15
0
3.516742372e-17
3.048442532e-16
3.119976069e-16
1.745851707e-16
0
1.289284997e-15
1.072693622e-15
9.939201468e-16
5.062015231e-16
2.516185617e-15
6.519564579e-17
7.272909177e-15
1.512907818e-14
2.109637409e-14
0
8.544389692e-13
1.240069267e-12
1.135934225e-12
4.882382467e-13
1.000823559e-13
0
0
0
0
0
0
0
0
0
0
0
0
0
0
0
0
0
0
0
0
0
0
0
0
0
0
0
0
0
0
0
0
1.074078392e-15
8.612294638e-16
1.332091335e-15
5.536963837e-17
9.42210478e-17
1.749985335e-15
5.599663911e-17
0
3.554631499e-17
3.411881078e-16
3.044315477e-16
1.901888872e-16
0
1.269838232e-15
0
1.076913964e-15
3.641609438e-15
1.364564668e-14
2.343084267e-15
7.393818308e-15
7.752943024e-15
4.566062152e-15
0
5.168452066e-13
9.928589652e-13
1.128863884e-12
6.241617597e-13
2.181834427e-13
2.029333533e-15
0
0
0
0
0
0
0
0
0
0
0
0
0
0
0
0
0
0
0
0
0
0
0
0
0
0
0
0
0
0
7.995860288e-16
6.364260275e-16
3.256476299e-16
2.638739195e-16
0
4.158710334e-17
1.930183743e-15
2.89549318e-17
0
0
3.268504758e-16
2.992704202e-16
2.02271456e-16
3.53868842e-17
1.238191621e-15
0
1.378145858e-15
6.972392854e-15
2.250009006e-14
8.070071991e-15
9.101675828e-15
1.053372722e-14
1.550848731e-14
2.032988011e-14
0
8.984587957e-13
1.28885362e-12
1.179339859e-12
5.270298444e-13
1.2339153e-13
0
0
0
0
0
0
0
0
0
0
0
0
0
0
0
0
0
0
0
0
0
0
0
0
0
0
0
0
0
0
2.961627712e-16
2.269490905e-16
2.516047392e-16
0
0
6.070718691e-16
0
0
0
0
3.216535499e-16
2.585393943e-16
0
1.140262928e-16
4.278808331e-16
3.951231012e-15
9.151540768e-15
1.926377326e-14
3.408302275e-14
2.702185936e-14
2.653992793e-14
3.329563644e-14
3.278748675e-14
2.520145465e-14
1.59403974e-15
7.103188262e-13
1.138580577e-12
1.204152631e-12
6.671331511e-13
2.404229966e-13
3.184742164e-15
0
0
0
0
0
0
0
0
0
0
0
0
0
0
0
0
0
0
0
0
0
0
0
0
0
0
0
0
0
1.763068066e-16
2.169444582e-16
0
8.021091647e-18
4.293320764e-17
1.24559813e-15
3.838863192e-17
0
4.417342526e-19
0
4.532067158e-16
2.503803198e-15
5.307125641e-15
1.121154002e-14
1.677669945e-14
2.506703965e-14
3.345935355e-14
4.269910609e-14
4.950314768e-14
4.337438269e-14
6.488119911e-14
7.894355066e-14
8.145736951e-14
7.434299113e-14
7.795361987e-14
3.294380948e-14
9.449869702e-13
1.329571036e-12
1.217678344e-12
5.229356432e-13
1.115528414e-13
0
0
0
0
0
0
0
0
0
0
0
0
0
0
0
0
0
0
0
0
0
0
0
0
0
0
0
0
0
2.147625481e-16
0
4.093886932e-18
0
2.962135808e-17
0
0
0
5.503173201e-17
1.578342724e-15
5.735755655e-15
1.23884352e-14
2.034036203e-14
3.236714633e-14
4.467310863e-14
6.042734078e-14
7.614130153e-14
9.049502681e-14
1.025890963e-13
1.088135363e-13
1.203238453e-13
1.297314977e-13
1.248416967e-13
1.100056259e-13
7.695733335e-14
0
8.578271538e-13
1.299895857e-12
1.285673366e-12
6.65888409e-13
2.209883684e-13
2.74526324e-15
0
0
0
0
0
0
0
0
0
0
0
0
0
0
0
0
0
0
0
0
0
0
0
0
0
0
0
0
0
0
0
0
0
0
1.620041921e-16