/*--------------------------------*- C++ -*----------------------------------*\
  =========                 |
  \\      /  F ield         | OpenFOAM: The Open Source CFD Toolbox
   \\    /   O peration     | Website:  https://openfoam.org
    \\  /    A nd           | Version:  10
     \\/     M anipulation  |
\*---------------------------------------------------------------------------*/
FoamFile
{
    format      ascii;
    class       volScalarField;
    location    "0.0250188088";
    object      HO2;
}
// * * * * * * * * * * * * * * * * * * * * * * * * * * * * * * * * * * * * * //

dimensions      [0 0 0 0 0 0 0];

internalField   nonuniform List<scalar> 
5170
(
8.44662957e-09
8.432760517e-09
8.339263594e-09
7.674752457e-09
5.709210835e-10
1.663047119e-08
1.658718804e-08
1.638811008e-08
1.537153666e-08
9.593358062e-09
2.475725149e-08
2.46849483e-08
2.43943307e-08
2.317780823e-08
1.839494857e-08
3.279611738e-08
3.269838334e-08
3.234037394e-08
3.104677624e-08
2.723516162e-08
4.072800466e-08
4.060947917e-08
4.021019797e-08
3.893774537e-08
3.609324817e-08
4.854938368e-08
4.841839789e-08
4.800494133e-08
4.683930939e-08
4.495371824e-08
5.627002822e-08
5.613314148e-08
5.573135342e-08
5.475726341e-08
5.381776449e-08
6.390904583e-08
6.377511727e-08
6.340832004e-08
6.269680596e-08
6.269469619e-08
7.148228217e-08
7.135947769e-08
7.105395697e-08
7.066978647e-08
7.159562625e-08
7.900575173e-08
7.88995465e-08
7.867370637e-08
7.868972491e-08
8.053230307e-08
8.648908103e-08
8.640484549e-08
8.627294492e-08
8.676391605e-08
8.950863335e-08
9.393437934e-08
9.387948983e-08
9.387248565e-08
9.489140424e-08
9.851735273e-08
1.013439156e-07
1.013262569e-07
1.01482505e-07
1.030727247e-07
1.075496919e-07
1.087205229e-07
1.08748003e-07
1.091016104e-07
1.113071958e-07
1.16596406e-07
1.160649849e-07
1.161468923e-07
1.167290847e-07
1.195893331e-07
1.256451464e-07
1.233754869e-07
1.23522381e-07
1.243751989e-07
1.27918601e-07
1.346715976e-07
1.306514181e-07
1.308753237e-07
1.320308985e-07
1.362764886e-07
1.436805704e-07
1.37892941e-07
1.382081197e-07
1.397175971e-07
1.44670603e-07
1.526394163e-07
1.451004971e-07
1.45524168e-07
1.474452262e-07
1.531201667e-07
1.616118772e-07
1.523203326e-07
1.530535798e-07
1.563284197e-07
1.671878246e-07
1.923858655e-07
3.00249449e-06
3.001732111e-06
3.001698642e-06
3.0023822e-06
3.002235294e-06
2.342518298e-06
2.440619066e-06
2.442021927e-06
2.419670633e-06
2.276495797e-06
1.808845923e-06
1.937853951e-06
1.93983504e-06
1.888183935e-06
1.717413948e-06
1.50637793e-06
1.625229096e-06
1.629704266e-06
1.564544008e-06
1.426838022e-06
1.328580198e-06
1.429798135e-06
1.432662461e-06
1.371499381e-06
1.252753026e-06
1.233949074e-06
1.308299384e-06
1.315843868e-06
1.256582009e-06
1.16711893e-06
1.155727756e-06
1.231611901e-06
1.236953058e-06
1.19276752e-06
1.133490024e-06
1.130138961e-06
1.167560579e-06
1.173754788e-06
1.153610763e-06
1.111940658e-06
1.112312588e-06
1.137051646e-06
1.141582275e-06
1.124719732e-06
1.089367614e-06
1.093385278e-06
1.117658564e-06
1.120640723e-06
1.105373239e-06
1.08251688e-06
1.083657954e-06
1.102422991e-06
1.104585437e-06
1.087790212e-06
1.075829128e-06
1.076173615e-06
1.086350179e-06
1.087642462e-06
1.081010685e-06
1.070325178e-06
1.070666364e-06
1.079540928e-06
1.080511886e-06
1.073944259e-06
1.06596206e-06
1.06625503e-06
1.073110899e-06
1.073632525e-06
1.068313133e-06
1.061804275e-06
1.062407961e-06
1.067939385e-06
1.068300332e-06
1.063787783e-06
1.057780791e-06
1.05913452e-06
1.063842005e-06
1.064063438e-06
1.059654889e-06
1.053400237e-06
1.055270978e-06
1.060128139e-06
1.060224028e-06
1.055704889e-06
1.049083048e-06
1.051634056e-06
1.056615002e-06
1.056452366e-06
1.051432e-06
1.044497215e-06
1.057537353e-06
1.054758069e-06
1.05263005e-06
1.047139777e-06
1.040085533e-06
2.120305902e-06
1.227631214e-06
1.079349029e-06
1.049028836e-06
1.033706694e-06
1.598145562e-07
1.655930626e-07
2.520960695e-07
1.50246248e-06
1.307542685e-05
1.699311376e-07
1.936037104e-07
4.950341605e-07
3.547256498e-06
1.927251475e-05
1.857858945e-07
2.514697441e-07
9.355309061e-07
5.59860441e-06
2.170135686e-05
2.118911103e-07
3.519071059e-07
1.567076407e-06
7.482376548e-06
2.190203735e-05
2.578433634e-07
5.366846381e-07
2.657032975e-06
9.037678597e-06
2.066767525e-05
3.317724544e-07
7.946717568e-07
3.465602989e-06
1.008640406e-05
1.905531003e-05
4.449815157e-07
1.143711568e-06
4.329321914e-06
1.074021396e-05
1.788848233e-05
6.160680612e-07
1.619794994e-06
5.183503447e-06
1.113283294e-05
1.700833442e-05
8.702530611e-07
2.247034488e-06
5.980438775e-06
1.131734814e-05
1.615017756e-05
1.218098061e-06
2.883605944e-06
6.661223981e-06
1.127819728e-05
1.505112276e-05
1.692064917e-06
3.604724272e-06
7.22803506e-06
1.116743052e-05
1.420665824e-05
2.343538649e-06
4.369840281e-06
7.686057313e-06
1.103294073e-05
1.348324874e-05
3.207132437e-06
5.14231089e-06
8.039271361e-06
1.079545224e-05
1.261140713e-05
4.168638367e-06
5.882363707e-06
8.32068573e-06
1.053814749e-05
1.18496887e-05
5.23072143e-06
6.606406777e-06
8.558113271e-06
1.027891458e-05
1.116386222e-05
6.265447539e-06
7.290946637e-06
8.777214807e-06
1.003958988e-05
1.055856901e-05
7.230041843e-06
7.94737801e-06
9.012820856e-06
9.877925323e-06
1.013622986e-05
8.12679802e-06
8.589504348e-06
9.291544211e-06
9.819118328e-06
9.938664615e-06
9.000559169e-06
9.300069194e-06
9.755243849e-06
1.007195466e-05
1.018395218e-05
9.859033941e-06
1.004726222e-05
1.033111903e-05
1.057442434e-05
1.093745513e-05
1.086491398e-05
1.100718467e-05
1.128288802e-05
1.17148718e-05
1.252832666e-05
1.301898074e-05
1.324812854e-05
1.377819119e-05
1.467390007e-05
1.609039467e-05
1.672277993e-05
1.705987954e-05
1.783835951e-05
1.910247185e-05
2.093931642e-05
1.957225579e-05
1.985734351e-05
2.04966123e-05
2.148267976e-05
2.281360554e-05
1.914710289e-05
1.927513495e-05
1.954560121e-05
1.993040439e-05
2.039791473e-05
1.598777211e-05
1.599763115e-05
1.600662878e-05
1.599830588e-05
1.59556842e-05
1.226824897e-05
1.223604272e-05
1.215377169e-05
1.201651061e-05
1.182227217e-05
9.014935293e-06
8.976446349e-06
8.884568188e-06
8.739817116e-06
8.544962418e-06
6.534823088e-06
6.503254549e-06
6.42964196e-06
6.31526384e-06
6.163673668e-06
4.766411581e-06
4.744120241e-06
4.69238162e-06
4.61132588e-06
4.504188205e-06
3.542694768e-06
3.527501824e-06
3.492730181e-06
3.439565718e-06
3.36959874e-06
2.724597606e-06
2.714189602e-06
2.690536394e-06
2.654611503e-06
2.607604788e-06
2.172373837e-06
2.165306367e-06
2.149373419e-06
2.125294219e-06
2.093831471e-06
1.802934222e-06
1.798051332e-06
1.787114396e-06
1.770619126e-06
1.749110135e-06
1.556716383e-06
1.552996721e-06
1.544739531e-06
1.532445125e-06
1.516388603e-06
1.387847441e-06
1.385110338e-06
1.37909025e-06
1.370064254e-06
1.358239984e-06
1.273182602e-06
1.270930596e-06
1.266006902e-06
1.258611828e-06
1.248861704e-06
1.188053488e-06
1.186167242e-06
1.182089031e-06
1.176024662e-06
1.16808103e-06
1.12523853e-06
1.123573488e-06
1.119990064e-06
1.114665058e-06
1.107690511e-06
1.073518319e-06
1.071972339e-06
1.068639938e-06
1.063658331e-06
1.057086851e-06
1.028500454e-06
1.027009244e-06
1.023806911e-06
1.019036312e-06
1.012758215e-06
9.868843525e-07
9.855078167e-07
9.825589203e-07
9.781788216e-07
9.724244654e-07
9.504542929e-07
9.492649891e-07
9.464780493e-07
9.422980379e-07
9.367650978e-07
9.152504754e-07
9.139780646e-07
9.112458126e-07
9.071766793e-07
9.018167641e-07
8.811609588e-07
8.799549863e-07
8.773755321e-07
8.735368869e-07
8.684628443e-07
8.491371031e-07
8.479801034e-07
8.455034981e-07
8.418223486e-07
8.370003513e-07
8.187800325e-07
8.176857321e-07
8.153465366e-07
8.118752334e-07
8.073172916e-07
7.947652326e-07
7.936996406e-07
7.91420128e-07
7.880326448e-07
7.835735428e-07
7.71459158e-07
7.704143576e-07
7.681795038e-07
7.648583806e-07
7.604884334e-07
7.498767263e-07
7.48885999e-07
7.46770175e-07
7.436422372e-07
7.39502387e-07
7.325985107e-07
7.316520557e-07
7.296221074e-07
7.266004204e-07
7.226060874e-07
7.160244171e-07
7.150597051e-07
7.12995121e-07
7.09922428e-07
7.058696216e-07
6.997488002e-07
6.987997281e-07
6.967713751e-07
6.937585007e-07
6.897948225e-07
6.852452287e-07
6.843493347e-07
6.824540685e-07
6.796120819e-07
6.758778044e-07
6.742871619e-07
6.734015043e-07
6.715133271e-07
6.687161147e-07
6.650447895e-07
6.65480526e-07
6.646155393e-07
6.627728996e-07
6.600646929e-07
6.56473399e-07
6.594430234e-07
6.585737353e-07
6.567167981e-07
6.539572641e-07
6.503197508e-07
6.551362992e-07
6.542631697e-07
6.523990899e-07
6.496304379e-07
6.459831834e-07
6.530211911e-07
6.521451074e-07
6.502760633e-07
6.475019627e-07
6.43849987e-07
6.517210096e-07
6.508458067e-07
6.489795391e-07
6.462114007e-07
6.425706062e-07
6.481979449e-07
6.473471533e-07
6.455357493e-07
6.428567331e-07
6.393412306e-07
6.399670452e-07
6.391913405e-07
6.375423106e-07
6.35108197e-07
6.319236e-07
6.271798235e-07
6.264694393e-07
6.249583373e-07
6.227339095e-07
6.198497953e-07
6.093930991e-07
6.086989092e-07
6.072108302e-07
6.049938023e-07
6.020675041e-07
5.835466771e-07
5.828774077e-07
5.814398359e-07
5.79296265e-07
5.764678776e-07
5.557151416e-07
5.550896121e-07
5.537474049e-07
5.51753115e-07
5.491538093e-07
5.331001557e-07
5.325272405e-07
5.312972065e-07
5.29464202e-07
5.270435272e-07
5.189355495e-07
5.183716385e-07
5.171655474e-07
5.153753988e-07
5.130234897e-07
5.116971723e-07
5.111567174e-07
5.100046487e-07
5.083001052e-07
5.060686615e-07
5.101555437e-07
5.096345582e-07
5.085264316e-07
5.068919838e-07
5.047856486e-07
2.348664375e-05
2.705551491e-05
2.731605903e-05
2.545795648e-05
2.264358144e-05
2.026424476e-05
1.904556454e-05
1.802199706e-05
1.685314891e-05
1.53544091e-05
1.439104856e-05
1.35433869e-05
1.253028929e-05
1.1709397e-05
1.09920548e-05
1.040489416e-05
1.003276768e-05
9.965528047e-06
1.041682349e-05
1.157824844e-05
1.35559416e-05
1.748454607e-05
2.256965403e-05
2.390562055e-05
2.075962872e-05
1.592142261e-05
1.167780449e-05
8.401718856e-06
6.05235432e-06
4.425845055e-06
3.317523705e-06
2.572587677e-06
2.070246432e-06
1.732826674e-06
1.50388919e-06
1.348820738e-06
1.240933898e-06
1.161553017e-06
1.101758887e-06
1.051538827e-06
1.007482398e-06
9.675706817e-07
9.320881107e-07
8.972896248e-07
8.64161085e-07
8.328969146e-07
8.034603576e-07
7.797869913e-07
7.567789271e-07
7.359958149e-07
7.191663332e-07
7.024123054e-07
6.864220374e-07
6.726985982e-07
6.619165731e-07
6.534122891e-07
6.4720629e-07
6.428607152e-07
6.407225948e-07
6.394546683e-07
6.363376842e-07
6.292064433e-07
6.173147026e-07
5.995751234e-07
5.74073239e-07
5.469307259e-07
5.249851268e-07
5.110294307e-07
5.041743236e-07
5.029413541e-07
1.044077707e-05
3.330683163e-06
3.323797239e-06
1.841989362e-06
2.947533837e-06
1.541226135e-05
1.953080649e-05
5.671231532e-06
6.242534528e-06
9.536550053e-06
1.997977219e-05
1.794512473e-05
4.58863226e-06
1.036300541e-05
2.077097315e-05
1.977151638e-05
1.705280967e-05
4.941180052e-06
1.072500362e-05
2.417165409e-05
1.801860536e-05
1.509405172e-05
1.043818412e-05
8.967184175e-06
1.976706007e-05
1.686085372e-05
1.514549498e-05
1.43656295e-05
6.991657341e-06
1.568808992e-05
1.689960445e-05
1.82478915e-05
1.651915368e-05
5.435905696e-06
1.189720317e-05
1.653235777e-05
1.757019558e-05
1.566538543e-05
4.690605244e-06
8.996080394e-06
1.552590694e-05
1.598301654e-05
1.581973424e-05
6.589118075e-06
7.051920117e-06
1.416801456e-05
1.466598893e-05
1.456838181e-05
8.024117858e-06
5.477837697e-06
1.339324446e-05
1.402970246e-05
1.432289781e-05
8.865462204e-06
4.298781567e-06
1.265397697e-05
1.35862067e-05
1.494777037e-05
9.899509751e-06
3.607183598e-06
1.184651143e-05
1.29127007e-05
1.434106146e-05
1.067772334e-05
4.078702732e-06
1.113216522e-05
1.235669007e-05
1.388460603e-05
1.133940194e-05
4.951924832e-06
1.055374357e-05
1.188781885e-05
1.363200897e-05
1.176876226e-05
5.624733303e-06
1.013039938e-05
1.157290933e-05
1.34986475e-05
1.207648864e-05
6.27067853e-06
9.916514905e-06
1.146464946e-05
1.346898461e-05
1.239356498e-05
6.963742005e-06
1.009940699e-05
1.195045198e-05
1.388953242e-05
1.278470904e-05
7.439285997e-06
1.088996324e-05
1.322406161e-05
1.529116915e-05
1.367494746e-05
7.810334576e-06
1.276787427e-05
1.704417183e-05
2.30232959e-05
2.525594222e-05
1.387211503e-05
1.530960458e-05
2.13745559e-05
3.3211575e-05
5.483744464e-05
8.637842291e-05
1.959111399e-05
2.594976521e-05
3.74264644e-05
5.661754549e-05
8.325310675e-05
2.499939438e-05
3.084299747e-05
3.897548392e-05
4.855603325e-05
5.683186107e-05
2.560746705e-05
2.863598015e-05
3.15325669e-05
3.344609712e-05
3.342725497e-05
2.142613131e-05
2.216098059e-05
2.231195761e-05
2.164299848e-05
2.003920061e-05
1.5995772e-05
1.574280351e-05
1.505746134e-05
1.394937483e-05
1.248509382e-05
1.156176707e-05
1.110410012e-05
1.038218103e-05
9.452864837e-06
8.388053099e-06
8.258143269e-06
7.849706796e-06
7.285531147e-06
6.610954311e-06
5.882822482e-06
5.932217909e-06
5.630362821e-06
5.23152014e-06
4.770362882e-06
4.277029302e-06
4.337489924e-06
4.123502577e-06
3.85265664e-06
3.550470218e-06
3.226667097e-06
3.257021864e-06
3.114009753e-06
2.932990324e-06
2.733813315e-06
2.521564583e-06
2.530935723e-06
2.435873193e-06
2.314101669e-06
2.178990476e-06
2.036954786e-06
2.041307885e-06
1.976204706e-06
1.89610466e-06
1.803283307e-06
1.703974908e-06
1.712001068e-06
1.664531789e-06
1.60639327e-06
1.541553611e-06
1.474020065e-06
1.486726335e-06
1.451643181e-06
1.409959203e-06
1.364302774e-06
1.313701359e-06
1.335113362e-06
1.308705711e-06
1.27648712e-06
1.240506505e-06
1.201966683e-06
1.228837222e-06
1.206148107e-06
1.180287034e-06
1.152368823e-06
1.122212009e-06
1.151150341e-06
1.132342259e-06
1.110940993e-06
1.086615551e-06
1.05983848e-06
1.092026006e-06
1.074610172e-06
1.054822864e-06
1.032872804e-06
1.008993674e-06
1.042295905e-06
1.02578833e-06
1.007495115e-06
9.875011475e-07
9.66118245e-07
9.986232824e-07
9.832244746e-07
9.664811979e-07
9.485524059e-07
9.290211206e-07
9.593626533e-07
9.453984033e-07
9.298530093e-07
9.127954367e-07
8.942614699e-07
9.241317627e-07
9.103468446e-07
8.952054375e-07
8.788406186e-07
8.612529314e-07
8.896341216e-07
8.763948044e-07
8.620264447e-07
8.465040271e-07
8.299509721e-07
8.568491759e-07
8.443259567e-07
8.307388879e-07
8.160740503e-07
8.00465907e-07
8.258823349e-07
8.138598575e-07
8.009588142e-07
7.872143103e-07
7.728693075e-07
7.968714649e-07
7.858196651e-07
7.742454729e-07
7.613145317e-07
7.472464619e-07
7.733030483e-07
7.622702839e-07
7.503465622e-07
7.374918513e-07
7.23772299e-07
7.504160567e-07
7.396251197e-07
7.280656434e-07
7.157900885e-07
7.027903965e-07
7.29934168e-07
7.197376736e-07
7.087285648e-07
6.969078525e-07
6.841986626e-07
7.132206197e-07
7.030693178e-07
6.921219302e-07
6.803421945e-07
6.677356321e-07
6.964465648e-07
6.863170776e-07
6.75454802e-07
6.63868365e-07
6.516442755e-07
6.805948567e-07
6.707792303e-07
6.60355927e-07
6.493853752e-07
6.379043837e-07
6.671817793e-07
6.579874278e-07
6.480260784e-07
6.373821875e-07
6.261417548e-07
6.564757348e-07
6.473650263e-07
6.376738762e-07
6.273299664e-07
6.163304033e-07
6.480937431e-07
6.391421095e-07
6.294908723e-07
6.191044972e-07
6.080470256e-07
6.417840067e-07
6.326605334e-07
6.229340048e-07
6.125765805e-07
6.016316873e-07
6.374111854e-07
6.282767368e-07
6.185875833e-07
6.083231526e-07
5.975337378e-07
6.352477018e-07
6.261088063e-07
6.164590118e-07
6.062861136e-07
5.956475911e-07
6.339970059e-07
6.249327903e-07
6.15426856e-07
6.054975908e-07
5.952335758e-07
6.310798026e-07
6.223914639e-07
6.133561047e-07
6.039816414e-07
5.942973122e-07
6.244373929e-07
6.165424472e-07
6.082341473e-07
5.995434384e-07
5.904660589e-07
6.129500049e-07
6.057896687e-07
5.981326361e-07
5.896294797e-07
5.803689496e-07
5.953026518e-07
5.87976873e-07
5.80022844e-07
5.714032018e-07
5.621482219e-07
5.700183292e-07
5.630073726e-07
5.553805174e-07
5.471590193e-07
5.384422108e-07
5.431853576e-07
5.367173418e-07
5.297241135e-07
5.222837582e-07
5.143452443e-07
5.214971775e-07
5.155195658e-07
5.090938966e-07
5.021762478e-07
4.948588625e-07
5.07605003e-07
5.018490694e-07
4.956786361e-07
4.891346687e-07
4.823015689e-07
5.008716441e-07
4.95413897e-07
4.896922045e-07
4.836506481e-07
4.773493495e-07
4.996974833e-07
4.943906244e-07
4.887511913e-07
4.827089732e-07
4.76241312e-07
1.051601924e-06
7.926077767e-08
6.678023305e-11
0
0
0
2.011774177e-13
2.007675743e-13
2.011758727e-13
0
0
0
0
0
0
2.009421061e-13
2.00517816e-13
0
2.016937009e-13
2.010832562e-13
2.010809729e-13
2.011725989e-13
2.011940062e-13
2.012155354e-13
2.012365444e-13
2.012570347e-13
2.012115268e-13
2.012642729e-13
2.012840152e-13
2.013020118e-13
2.013194619e-13
2.013363036e-13
2.013526722e-13
2.013674028e-13
2.013451369e-13
2.014281606e-13
2.01442048e-13
2.01455831e-13
2.014691413e-13
2.014805795e-13
2.013755142e-13
0
0
0
0
0
0
0
0
0
0
0
0
0
0
0
0
0
2.0189726e-13
0
2.174206001e-06
3.268609886e-07
9.185710171e-09
2.645276086e-13
2.020999775e-13
0
0
0
0
2.023132083e-13
0
0
2.032323475e-13
2.024618947e-13
0
0
0
2.027718048e-13
0
2.018130146e-13
0
0
0
0
0
0
0
2.021077984e-13
2.022977455e-13
2.023900528e-13
2.023394594e-13
2.023641441e-13
2.024133152e-13
2.022651452e-13
0
0
0
0
0
0
0
0
0
0
0
0
0
0
2.028630879e-13
2.02919981e-13
2.029584817e-13
2.029622927e-13
2.029655892e-13
2.029682413e-13
2.029365022e-13
2.029396818e-13
2.03020173e-13
2.030597881e-13
2.028583004e-13
2.031872131e-13
5.440014587e-06
1.767149322e-07
1.911587545e-08
0
0
0
0
1.641789569e-13
0
1.527015622e-13
1.613393814e-13
1.631417932e-13
0
0
0
0
0
0
2.016858959e-13
0
2.02606732e-13
0
2.026135735e-13
0
0
0
2.017448255e-13
2.020511905e-13
0
0
0
0
2.021708398e-13
2.022120588e-13
0
0
0
0
0
2.026518597e-13
2.028876656e-13
2.027972499e-13
0
0
0
0
0
0
0
0
2.02523496e-13
2.026154999e-13
2.026254083e-13
2.02560285e-13
0
0
0
0
0
0
1.979746087e-05
1.950914549e-06
2.027262267e-07
1.534967431e-08
2.559271934e-09
1.033935234e-09
7.49295252e-10
6.350311565e-10
5.222107704e-10
3.831958442e-10
2.233958499e-10
6.056485817e-11
0
0
0
0
0
0
0
0
0
0
0
0
0
0
0
0
0
0
0
0
0
0
0
0
0
0
0
0
0
0
0
0
0
0
0
0
0
0
0
0
0
0
0
0
0
0
0
0
3.332844068e-05
6.554788724e-06
8.76644795e-07
1.282400862e-07
2.592883778e-08
1.438043142e-08
1.205883954e-08
1.119837204e-08
1.068095864e-08
1.02671243e-08
9.899415979e-09
9.57308972e-09
9.299306994e-09
9.077435761e-09
8.873439861e-09
8.61483078e-09
8.157562875e-09
7.502779496e-09
6.840286172e-09
6.286949312e-09
5.884528414e-09
5.608936906e-09
5.414770135e-09
5.26572571e-09
5.141263175e-09
5.031658708e-09
4.932577992e-09
4.841960489e-09
4.758523048e-09
4.681337173e-09
4.609654161e-09
4.5428507e-09
4.48050659e-09
4.422299356e-09
4.367677723e-09
4.316454107e-09
4.268332762e-09
4.222649933e-09
4.179185532e-09
4.138005004e-09
4.099037556e-09
4.061953373e-09
4.02686369e-09
3.993686701e-09
3.962223768e-09
3.932336e-09
3.90387146e-09
3.876682806e-09
3.850603675e-09
3.826086107e-09
3.802765929e-09
3.780694964e-09
3.758856403e-09
3.73723512e-09
3.711728974e-09
3.680462552e-09
3.645589051e-09
3.661379135e-09
3.885757309e-09
4.228171319e-09
3.073696837e-05
1.911664654e-05
3.181048805e-06
7.244669456e-07
1.015297036e-07
3.465119147e-08
2.552513535e-08
2.316566239e-08
2.213317723e-08
2.149076185e-08
2.100487265e-08
2.060962037e-08
2.028431593e-08
2.00046824e-08
1.971551122e-08
1.932613902e-08
1.866944043e-08
1.774885448e-08
1.679172439e-08
1.59646219e-08
1.5345141e-08
1.491257754e-08
1.460519327e-08
1.436909838e-08
1.417238577e-08
1.399930314e-08
1.384292845e-08
1.369989985e-08
1.356807889e-08
1.34459845e-08
1.333249389e-08
1.32265855e-08
1.312755217e-08
1.303485445e-08
1.294771718e-08
1.28657775e-08
1.278858018e-08
1.271541077e-08
1.264596868e-08
1.258021948e-08
1.25179954e-08
1.245878174e-08
1.240265008e-08
1.234938038e-08
1.229869335e-08
1.225059291e-08
1.220492913e-08
1.216142086e-08
1.211968778e-08
1.208015092e-08
1.204236709e-08
1.20065597e-08
1.197104848e-08
1.1935398e-08
1.189394034e-08
1.184511533e-08
1.17987913e-08
1.183635607e-08
1.21027661e-08
1.243847863e-08
2.427969567e-05
3.117750834e-05
9.094679625e-06
1.993035212e-06
4.384738817e-07
7.880813001e-08
3.900215848e-08
3.228560397e-08
3.028199861e-08
2.937376437e-08
2.882491589e-08
2.84229589e-08
2.808850968e-08
2.776873656e-08
2.739661334e-08
2.688602408e-08
2.60973553e-08
2.504767063e-08
2.395186778e-08
2.298371542e-08
2.223877477e-08
2.170898634e-08
2.133174131e-08
2.104510622e-08
2.080956808e-08
2.060478424e-08
2.042131727e-08
2.025432173e-08
2.010095862e-08
1.995930533e-08
1.982781712e-08
1.970526303e-08
1.959071798e-08
1.948339152e-08
1.938248898e-08
1.928749179e-08
1.919786371e-08
1.911303181e-08
1.903264034e-08
1.895648235e-08
1.888431019e-08
1.88156592e-08
1.875047033e-08
1.868847811e-08
1.862939684e-08
1.857318857e-08
1.851970149e-08
1.846878566e-08
1.842005986e-08
1.837358424e-08
1.832895624e-08
1.828623537e-08
1.824354133e-08
1.81990822e-08
1.81454195e-08
1.807581301e-08
1.799098538e-08
1.79374025e-08
1.798416353e-08
1.808279694e-08
1.871492503e-05
3.118226096e-05
1.958777949e-05
5.816015231e-06
1.690442642e-06
2.806655013e-07
6.463581273e-08
4.022380143e-08
3.539840467e-08
3.387031307e-08
3.319337455e-08
3.278960403e-08
3.246529794e-08
3.212383358e-08
3.168562986e-08
3.107311505e-08
3.018181672e-08
2.904679973e-08
2.786218442e-08
2.679291671e-08
2.594380109e-08
2.532348318e-08
2.48776571e-08
2.454214599e-08
2.427146566e-08
2.404038185e-08
2.383622227e-08
2.365227596e-08
2.348459737e-08
2.333055798e-08
2.318816476e-08
2.305589911e-08
2.293257284e-08
2.281718342e-08
2.270887771e-08
2.260698063e-08
2.251089285e-08
2.242007045e-08
2.233409011e-08
2.225262225e-08
2.217535548e-08
2.210189575e-08
2.203205075e-08
2.196558345e-08
2.190226025e-08
2.184193391e-08
2.178438769e-08
2.172949604e-08
2.167699605e-08
2.162677661e-08
2.157842792e-08
2.153157231e-08
2.148409193e-08
2.143237454e-08
2.136644234e-08
2.12727357e-08
2.113774771e-08
2.096929036e-08
2.08000111e-08
2.071330694e-08
1.47908885e-05
2.672770898e-05
2.973240283e-05
1.282981636e-05
4.455380129e-06
1.166373819e-06
1.543486096e-07
5.314022905e-08
3.969579681e-08
3.657126118e-08
3.553783036e-08
3.507510609e-08
3.475340967e-08
3.440131363e-08
3.3918765e-08
3.323333483e-08
3.226586689e-08
3.106475804e-08
2.981201191e-08
2.866212774e-08
2.772013437e-08
2.700843772e-08
2.64859393e-08
2.609226405e-08
2.577892237e-08
2.551620306e-08
2.528785166e-08
2.508483406e-08
2.490168113e-08
2.47347548e-08
2.458141396e-08
2.443972975e-08
2.43081584e-08
2.418547822e-08
2.407068543e-08
2.396294967e-08
2.386157572e-08
2.376595458e-08
2.367559042e-08
2.359005677e-08
2.350898191e-08
2.343198716e-08
2.335879639e-08
2.32891498e-08
2.322282257e-08
2.315962347e-08
2.309933357e-08
2.304177461e-08
2.298671671e-08
2.293396001e-08
2.288303122e-08
2.283309958e-08
2.278160942e-08
2.272311337e-08
2.264542916e-08
2.252996987e-08
2.235483258e-08
2.211021228e-08
2.182737911e-08
2.166556815e-08
1.169586161e-05
2.181735542e-05
3.252058917e-05
2.195350982e-05
9.335892526e-06
2.961897717e-06
5.036440948e-07
8.646959669e-08
4.582115461e-08
3.884943218e-08
3.703483513e-08
3.640837961e-08
3.606215207e-08
3.569910348e-08
3.518637873e-08
3.445155401e-08
3.343106815e-08
3.218165484e-08
3.087806176e-08
2.966528686e-08
2.864522196e-08
2.78488972e-08
2.724800979e-08
2.678977976e-08
2.642644489e-08
2.612567495e-08
2.586815324e-08
2.564235688e-08
2.544100791e-08
2.525920145e-08
2.509345822e-08
2.494125349e-08
2.480064662e-08
2.467012722e-08
2.454847413e-08
2.443469304e-08
2.432795216e-08
2.422754953e-08
2.413289329e-08
2.404347527e-08
2.395885422e-08
2.387862905e-08
2.380246405e-08
2.373006039e-08
2.366116138e-08
2.35955393e-08
2.353297685e-08
2.347326424e-08
2.341615753e-08
2.336137e-08
2.330830666e-08
2.325569554e-08
2.320035372e-08
2.313531789e-08
2.3046851e-08
2.291412206e-08
2.271356719e-08
2.243324207e-08
2.211431388e-08
2.194587478e-08
9.40935271e-06
1.710581142e-05
2.891335414e-05
3.241691829e-05
1.664728317e-05
6.274350175e-06
1.486643933e-06
1.836496344e-07
5.727773856e-08
4.147175228e-08
3.823534525e-08
3.733720953e-08
3.694424776e-08
3.656828751e-08
3.603442743e-08
3.526776369e-08
3.421424354e-08
3.293488612e-08
3.159848465e-08
3.034126485e-08
2.926048404e-08
2.83918743e-08
2.771756426e-08
2.71936672e-08
2.677613946e-08
2.643245383e-08
2.61414679e-08
2.588955706e-08
2.566757574e-08
2.546914801e-08
2.528975024e-08
2.512610752e-08
2.497578579e-08
2.483691875e-08
2.470803367e-08
2.458793992e-08
2.447565597e-08
2.437035999e-08
2.427135804e-08
2.417805769e-08
2.408994654e-08
2.400657861e-08
2.392756684e-08
2.385257221e-08
2.3781299e-08
2.371348084e-08
2.364887705e-08
2.358724863e-08
2.352831532e-08
2.347169392e-08
2.341661252e-08
2.336135272e-08
2.330200887e-08
2.323042951e-08
2.313196168e-08
2.298568488e-08
2.277000623e-08
2.247725509e-08
2.215839114e-08
2.20116479e-08
7.221406442e-06
1.407143549e-05
2.415627164e-05
3.909814267e-05
2.668370895e-05
1.126377297e-05
3.142322598e-06
4.369827315e-07
8.334558536e-08
4.532879245e-08
3.939178253e-08
3.807410975e-08
3.761012473e-08
3.721538782e-08
3.666397698e-08
3.587769528e-08
3.480910619e-08
3.351947455e-08
3.217021719e-08
3.088883554e-08
2.976668284e-08
2.884155262e-08
2.810370022e-08
2.751780895e-08
2.704534278e-08
2.665580718e-08
2.632792399e-08
2.604689048e-08
2.580199487e-08
2.558535763e-08
2.539122771e-08
2.521542767e-08
2.505489852e-08
2.490734258e-08
2.477098535e-08
2.464441322e-08
2.452647556e-08
2.441621737e-08
2.431283556e-08
2.421564952e-08
2.412407412e-08
2.403760803e-08
2.395581488e-08
2.387831233e-08
2.380476528e-08
2.373486778e-08
2.366834815e-08
2.360492941e-08
2.35442732e-08
2.348587352e-08
2.342872747e-08
2.337064631e-08
2.330698194e-08
2.322867067e-08
2.312071281e-08
2.296328804e-08
2.273809607e-08
2.244331094e-08
2.213729019e-08
2.202159833e-08
5.794207206e-06
1.166442772e-05
2.043666179e-05
3.898214361e-05
3.895760704e-05
1.811961417e-05
5.539714448e-06
1.018863446e-06
1.352805843e-07
5.124329997e-08
4.053702932e-08
3.865180984e-08
3.81052953e-08
3.768686223e-08
3.711848756e-08
3.632053425e-08
3.525062715e-08
3.396960953e-08
3.263023236e-08
3.134797164e-08
3.020768914e-08
2.924665201e-08
2.846081531e-08
2.78224234e-08
2.729909984e-08
2.686401405e-08
2.649754161e-08
2.618508467e-08
2.591517259e-08
2.567872385e-08
2.546875962e-08
2.528008948e-08
2.510890204e-08
2.495237365e-08
2.480836267e-08
2.467519618e-08
2.45515318e-08
2.443626941e-08
2.432849102e-08
2.422742297e-08
2.413240564e-08
2.404287546e-08
2.395834458e-08
2.387838537e-08
2.380262103e-08
2.373070879e-08
2.366234035e-08
2.359719252e-08
2.353485083e-08
2.347464996e-08
2.341530062e-08
2.335412315e-08
2.328576439e-08
2.320049869e-08
2.308344034e-08
2.291642605e-08
2.268476046e-08
2.239232511e-08
2.210287921e-08
2.202154195e-08
4.679287215e-06
9.936254751e-06
1.781574453e-05
3.458866801e-05
5.156985281e-05
2.691190593e-05
8.806936371e-06
2.051260774e-06
2.264466927e-07
5.979473203e-08
4.162361435e-08
3.903876045e-08
3.840624612e-08
3.79626378e-08
3.737949344e-08
3.657763449e-08
3.551922787e-08
3.426442575e-08
3.295640242e-08
3.169859897e-08
3.056677685e-08
2.959549152e-08
2.878341744e-08
2.810879486e-08
2.754505307e-08
2.706981742e-08
2.666652055e-08
2.632230182e-08
2.602618346e-08
2.57686439e-08
2.554180988e-08
2.533954035e-08
2.515722236e-08
2.49914306e-08
2.48395929e-08
2.469973168e-08
2.457028603e-08
2.444999386e-08
2.433781463e-08
2.423287644e-08
2.413444157e-08
2.4041879e-08
2.395464573e-08
2.387226693e-08
2.379432482e-08
2.37204404e-08
2.365026156e-08
2.358340639e-08
2.351936342e-08
2.345727303e-08
2.339551782e-08
2.333092313e-08
2.325750693e-08
2.316512158e-08
2.303934102e-08
2.286391326e-08
2.262770788e-08
2.233969647e-08
2.206773881e-08
2.202197849e-08
3.790239884e-06
8.561467232e-06
1.558828636e-05
3.140338136e-05
6.350172915e-05
3.660339476e-05
1.227194719e-05
3.293941559e-06
4.087165296e-07
7.725766055e-08
4.309485514e-08
3.927601088e-08
3.850833114e-08
3.802353716e-08
3.742162552e-08
3.662036735e-08
3.558419107e-08
3.437130938e-08
3.311547925e-08
3.190709027e-08
3.081195168e-08
2.985858413e-08
2.904628059e-08
2.835727813e-08
2.776971815e-08
2.72655868e-08
2.683203924e-08
2.645912669e-08
2.613769209e-08
2.58588845e-08
2.561465352e-08
2.539826134e-08
2.520441512e-08
2.502909632e-08
2.486927293e-08
2.472263006e-08
2.458736334e-08
2.446203198e-08
2.434546142e-08
2.423667572e-08
2.413485322e-08
2.403929253e-08
2.394939252e-08
2.386463083e-08
2.378454824e-08
2.370872691e-08
2.363676082e-08
2.35681943e-08
2.350239335e-08
2.343827515e-08
2.337386973e-08
2.330552392e-08
2.322673095e-08
2.312715369e-08
2.299308247e-08
2.281028954e-08
2.257104167e-08
2.22886592e-08
2.203411276e-08
2.202297177e-08
3.180415854e-06
7.413810083e-06
1.47010711e-05
3.141799068e-05
7.530996203e-05
4.362809747e-05
1.433813208e-05
4.077836597e-06
6.615766051e-07
1.08183086e-07
4.56205335e-08
3.946996853e-08
3.843023475e-08
3.786684953e-08
3.723578012e-08
3.643713789e-08
3.543204292e-08
3.427569211e-08
3.30906693e-08
3.19556644e-08
3.092214345e-08
3.001311103e-08
2.92266697e-08
2.85469472e-08
2.795546346e-08
2.743788501e-08
2.698497557e-08
2.65901589e-08
2.62470385e-08
2.594854143e-08
2.568738419e-08
2.545686073e-08
2.525133378e-08
2.506633517e-08
2.489841784e-08
2.474493298e-08
2.460382185e-08
2.447345376e-08
2.435251037e-08
2.423990477e-08
2.413472747e-08
2.403620487e-08
2.394367677e-08
2.385657127e-08
2.377438467e-08
2.36966532e-08
2.362290797e-08
2.355260254e-08
2.348495467e-08
2.341863443e-08
2.335130984e-08
2.327888334e-08
2.319444526e-08
2.308767942e-08
2.294578428e-08
2.275660418e-08
2.251558493e-08
2.22396773e-08
2.200208568e-08
2.202325074e-08
3.116106696e-06
7.253316396e-06
1.589673958e-05
3.742092973e-05
8.679786569e-05
4.322148714e-05
1.379376164e-05
4.013262371e-06
9.085344052e-07
1.529419782e-07
5.00268989e-08
3.971706139e-08
3.818150871e-08
3.750060036e-08
3.683572253e-08
3.604597897e-08
3.508272635e-08
3.399878631e-08
3.290197195e-08
3.185605928e-08
3.090307112e-08
3.005935091e-08
2.932038308e-08
2.867084077e-08
2.809445966e-08
2.757965268e-08
2.712011285e-08
2.671239719e-08
2.635322563e-08
2.603811003e-08
2.576143991e-08
2.551728321e-08
2.530014797e-08
2.510538497e-08
2.492925655e-08
2.476882715e-08
2.462179472e-08
2.448633633e-08
2.436098501e-08
2.424453799e-08
2.4135994e-08
2.403450627e-08
2.393935258e-08