/*--------------------------------*- C++ -*----------------------------------*\
  =========                 |
  \\      /  F ield         | OpenFOAM: The Open Source CFD Toolbox
   \\    /   O peration     | Website:  https://openfoam.org
    \\  /    A nd           | Version:  10
     \\/     M anipulation  |
\*---------------------------------------------------------------------------*/
FoamFile
{
    format      ascii;
    class       volScalarField;
    location    "0.0250188088";
    object      N2;
}
// * * * * * * * * * * * * * * * * * * * * * * * * * * * * * * * * * * * * * //

dimensions      [0 0 0 0 0 0 0];

internalField   nonuniform List<scalar> 
5170
(
0.6472999915
0.6472999915
0.6472999916
0.6472999922
0.6472999994
0.6472999832
0.6472999832
0.6472999834
0.6472999845
0.6472999903
0.647299975
0.6472999751
0.6472999754
0.6472999766
0.6472999814
0.6472999669
0.647299967
0.6472999673
0.6472999686
0.6472999725
0.6472999589
0.647299959
0.6472999594
0.6472999607
0.6472999636
0.647299951
0.6472999511
0.6472999515
0.6472999527
0.6472999546
0.6472999432
0.6472999433
0.6472999437
0.6472999447
0.6472999456
0.6472999354
0.6472999356
0.647299936
0.6472999367
0.6472999367
0.6472999278
0.6472999279
0.6472999282
0.6472999286
0.6472999277
0.6472999202
0.6472999203
0.6472999205
0.6472999205
0.6472999187
0.6472999126
0.6472999127
0.6472999129
0.6472999124
0.6472999096
0.6472999051
0.6472999052
0.6472999052
0.6472999042
0.6472999005
0.6472998976
0.6472998977
0.6472998975
0.6472998959
0.6472998914
0.6472998902
0.6472998902
0.6472998898
0.6472998876
0.6472998822
0.6472998828
0.6472998827
0.6472998821
0.6472998792
0.6472998731
0.6472998754
0.6472998753
0.6472998744
0.6472998708
0.647299864
0.6472998681
0.6472998678
0.6472998667
0.6472998624
0.6472998549
0.6472998607
0.6472998604
0.6472998589
0.6472998539
0.6472998459
0.6472998535
0.6472998531
0.6472998516
0.6472998488
0.6472998509
0.6472998514
0.6472998747
0.6473000767
0.6473014918
0.6473078538
0.7342183722
0.7342191242
0.7342187979
0.7342187018
0.7342188336
0.7342024265
0.7342065015
0.7342063068
0.7342060803
0.7342045378
0.7341935277
0.7341979832
0.7341980925
0.734198017
0.7341969927
0.7341915902
0.7341941124
0.7341942578
0.7341945084
0.7341948386
0.7341925223
0.7341929749
0.7341929279
0.7341935934
0.7341951668
0.7341939948
0.7341931421
0.7341928742
0.7341937512
0.734195363
0.7341949048
0.7341937663
0.734193104
0.7341921645
0.7341863055
0.7341869622
0.7341926725
0.7341925581
0.734188084
0.7341727462
0.7341735906
0.7341872925
0.734187793
0.7341769473
0.7341595655
0.734161511
0.7341745587
0.7341758999
0.7341642472
0.734147827
0.7341513238
0.7341621149
0.7341637275
0.7341538736
0.734139757
0.7341438283
0.734152759
0.7341540418
0.7341450403
0.7341323385
0.7341368043
0.7341448792
0.734145794
0.7341373984
0.7341251313
0.7341297681
0.73413797
0.7341386566
0.734130482
0.7341184697
0.7341229902
0.7341315427
0.7341320651
0.7341240509
0.7341127267
0.7341167962
0.7341253297
0.7341256973
0.7341179663
0.7341078387
0.734111507
0.7341192745
0.734119485
0.7341124806
0.7341038592
0.7341072502
0.7341137209
0.7341137398
0.7341077681
0.7341010208
0.7340977937
0.7341076882
0.7341087478
0.734104855
0.7341012623
0.7332170606
0.73396527
0.7341087636
0.7341692619
0.7342613906
0.6473000365
0.6473013777
0.6473235403
0.6476533364
0.6520415292
0.6473009099
0.6473071061
0.6473883354
0.6482250877
0.6543232037
0.6473033816
0.6473213531
0.6475147602
0.6489965179
0.6559312789
0.6473090201
0.6473499545
0.6477206853
0.6499270645
0.6571420759
0.6473206702
0.6474036887
0.6480411559
0.6509731512
0.6580722705
0.647343191
0.6474987216
0.648497745
0.6520471813
0.6588848838
0.6473843579
0.6476553371
0.6490902671
0.6530984511
0.6596615705
0.6474559375
0.6478962346
0.649806712
0.6541189806
0.660425591
0.6475769801
0.6482514305
0.6506319114
0.6551031083
0.6611602186
0.6477763385
0.6487483421
0.6515457609
0.6560735279
0.6618945737
0.6480988988
0.6494187656
0.6525380283
0.6570486638
0.6626433801
0.648625696
0.6502732797
0.6535856218
0.6580416002
0.6634130103
0.6494623734
0.6513113843
0.6546954498
0.6590621016
0.6642152898
0.650572439
0.6525038727
0.6558685141
0.6601115083
0.6650432583
0.652043942
0.6539004071
0.6571429226
0.6612161138
0.6659166678
0.6537828684
0.6554841389
0.6585424801
0.6624141845
0.6668718173
0.6557875413
0.6573137448
0.66014431
0.6637734755
0.6679648369
0.6581253403
0.6594570855
0.6620216533
0.6653921257
0.6693389064
0.6607418235
0.6619286551
0.6643037453
0.6675249547
0.671372094
0.6640730668
0.6652285393
0.6675959388
0.670884723
0.6748978905
0.6692479065
0.670438514
0.6729009957
0.6763402862
0.6805332289
0.6776931864
0.6787466545
0.6809771345
0.6841573011
0.6880923035
0.6880023385
0.6888358006
0.6906403884
0.6932717321
0.6965932702
0.6983183181
0.6989568448
0.7003578186
0.702431789
0.7050869242
0.707709837
0.7081904991
0.7092480435
0.7108128852
0.7128104155
0.7156194644
0.7159697756
0.7167394833
0.7178855503
0.7193654707
0.7217585757
0.7220214717
0.7226017265
0.7234687093
0.7245922568
0.7266621432
0.7268644332
0.7273107109
0.7279784033
0.7288460005
0.7306209655
0.7307793052
0.7311283527
0.7316512096
0.7323324456
0.7338636481
0.7339893788
0.7342663893
0.7346818728
0.7352246797
0.7365657859
0.7366669386
0.7368897294
0.737224365
0.7376627437
0.7388634412
0.7389459336
0.7391276278
0.7394009416
0.7397599338
0.7408601555
0.7409283958
0.74107873
0.7413052033
0.741603394
0.7426260017
0.7426832393
0.7428093744
0.742999643
0.7432506928
0.7441994639
0.7442480931
0.7443552748
0.7445171268
0.7447310625
0.7455979193
0.7456397386
0.7457319033
0.7458711841
0.7460555518
0.7468320258
0.7468684191
0.7469485892
0.7470697973
0.7472304277
0.7479155364
0.7479475677
0.7480180817
0.748124712
0.7482661507
0.7488677239
0.7488962038
0.7489588509
0.7490535898
0.7491793448
0.7497108626
0.7497363979
0.7497925285
0.7498774137
0.7499901543
0.7504666402
0.7504896861
0.7505403156
0.7506168835
0.7507186282
0.7511535891
0.7511744901
0.7512203904
0.7512898117
0.7513821005
0.7517861414
0.7518051668
0.7518469392
0.7519101251
0.7519941589
0.7523748233
0.7523921903
0.7524303184
0.7524880019
0.7525647471
0.7529270477
0.7529429377
0.7529778229
0.7530306106
0.7531008676
0.753448
0.7534625674
0.7534945512
0.7535429586
0.7536074074
0.7539413782
0.7539547572
0.7539841343
0.7540286058
0.7540878333
0.7544099164
0.7544222243
0.7544492525
0.7544901766
0.7545446959
0.7548557451
0.7548670855
0.7548919916
0.7549297101
0.7549799729
0.7552806268
0.7552910911
0.7553140761
0.7553488919
0.7553952987
0.7556861244
0.7556957951
0.7557170381
0.7557492208
0.7557921282
0.7560733859
0.7560823347
0.756101995
0.7561317851
0.7561715117
0.7564437396
0.7564520323
0.7564702527
0.7564978653
0.7565346962
0.7567982766
0.7568059711
0.7568228791
0.7568485067
0.7568826967
0.757137992
0.7571451405
0.7571608499
0.7571846643
0.7572164413
0.757463788
0.7574704371
0.7574850504
0.757507206
0.7575367748
0.7577764791
0.7577826708
0.7577962798
0.7578169154
0.7578444604
0.7580768131
0.7580825852
0.7580952733
0.7581145147
0.7581402026
0.7583654742
0.7583708611
0.7583827031
0.7584006635
0.7584246447
0.7586431209
0.7586481537
0.7586592181
0.7586760008
0.7586984126
0.7589103498
0.7589150564
0.7589254043
0.7589411018
0.7589620672
0.7591677703
0.7591721765
0.7591818646
0.7591965626
0.7592161954
0.7594158704
0.7594199991
0.7594290775
0.7594428518
0.7594612529
0.7596552114
0.7596590841
0.7596676001
0.7596805222
0.7596977867
0.7598861025
0.7598897376
0.7598977314
0.759909862
0.7599260709
0.760109182
0.7601125974
0.7601201088
0.7601315083
0.7601467417
0.7603244226
0.760327633
0.7603346937
0.7603454099
0.7603597316
0.7605324807
0.7605355025
0.7605421489
0.7605522369
0.7605657201
0.7607301011
0.760732947
0.7607392063
0.7607487073
0.7607614068
0.7608997828
0.7609024859
0.7609084315
0.7609174569
0.760929522
0.6646537048
0.6645995106
0.6645147019
0.6645187252
0.6645934263
0.6648072798
0.6651296168
0.6655241361
0.6659361833
0.6663893708
0.6668901635
0.6674336657
0.6680335075
0.6686644061
0.6693472814
0.6701137054
0.6710115925
0.6722304597
0.6742267981
0.6779112566
0.6836520932
0.6910369196
0.6991105948
0.7071083118
0.7143327172
0.7205078423
0.7254627316
0.7295213911
0.7328654181
0.7356514806
0.7380091011
0.740044799
0.7418408743
0.7434512338
0.7449024284
0.746203652
0.7473598526
0.7483804688
0.7492812901
0.7500817904
0.7508015071
0.7514574058
0.7520628185
0.7526275141
0.7531583723
0.7536601903
0.7541363643
0.7545893881
0.7550211914
0.7554333678
0.7558273378
0.7562041201
0.7565649356
0.7569107744
0.7572425431
0.7575610678
0.7578670949
0.758161315
0.7584443577
0.7587168384
0.7589793063
0.7592323411
0.7594763875
0.7597119882
0.7599394054
0.760159275
0.7603715159
0.7605768153
0.7607718581
0.7609394523
0.6901169995
0.721908162
0.7336875497
0.7380101046
0.7465195308
0.6828372015
0.7074474775
0.7274065047
0.7392722576
0.7512424856
0.6793620312
0.699987012
0.7208401111
0.7376222523
0.7521740571
0.6771719032
0.6954467052
0.7149023292
0.7337616203
0.7488737021
0.6757190052
0.6923562905
0.7103448768
0.7289042637
0.7441558665
0.6748038135
0.6901021309
0.7066469583
0.7239637811
0.7394876099
0.6742305039
0.6883410614
0.7035995081
0.7197102222
0.7348011751
0.6738931
0.6869470677
0.7010086638
0.7159292581
0.7304793314
0.673690081
0.6858277565
0.6988810216
0.7127579338
0.7265997517
0.6736144662
0.6849275111
0.6970831132
0.7100112973
0.7230689021
0.6736521482
0.6842380643
0.6955909006
0.7076425373
0.7199296265
0.673782442
0.6837123328
0.6943258726
0.7055440475
0.7170658075
0.67401332
0.6833647095
0.6933235405
0.7038124944
0.7146588222
0.6743025369
0.6831128236
0.6924729205
0.7023056291
0.712491908
0.6746604162
0.6829580955
0.6917513936
0.7009777355
0.7105460638
0.6751157266
0.6829281548
0.6911849902
0.6998198837
0.7087860525
0.6756985326
0.6830361945
0.6908063884
0.6989788197
0.7075631043
0.6766561711
0.6836901193
0.6912463043
0.6993344288
0.7079886369
0.6785545849
0.6856573626
0.6934742649
0.7020271755
0.7113542452
0.6823886295
0.6900234305
0.6984883201
0.7076854848
0.7175628883
0.6881895833
0.6961009782
0.7048691426
0.7142205354
0.7237912173
0.6952562279
0.70270893
0.7108736209
0.7193496285
0.7276354454
0.7026905392
0.7091428762
0.7161439858
0.7232260329
0.7300185661
0.709960419
0.7151227231
0.7207108645
0.7263825367
0.7318416374
0.716476256
0.7204427179
0.7247976618
0.7292662066
0.7336320322
0.7221186709
0.7251406928
0.7285001917
0.7319996724
0.7354810599
0.7266924816
0.7290276159
0.7316556868
0.734433852
0.737244909
0.7304786859
0.7323123445
0.7343975759
0.7366303135
0.7389230717
0.7336240952
0.7350868284
0.7367648576
0.7385815478
0.7404710781
0.7362619428
0.7374449334
0.7388124874
0.7403077307
0.7418808517
0.7385067815
0.7394755846
0.740603553
0.7418482141
0.7431716516
0.7404555875
0.7412590085
0.7422008782
0.743249156
0.7443746943
0.7421840936
0.7428588281
0.7436550332
0.7445481431
0.7455154123
0.7437414735
0.7443149623
0.7449956615
0.7457643933
0.7466031234
0.7451508774
0.7456437211
0.7462313978
0.7468987422
0.747631293
0.7464190437
0.7468470775
0.7473589802
0.7479426967
0.748586573
0.7475489858
0.747924626
0.7483744393
0.7488888343
0.749458403
0.7485485166
0.7488814965
0.7492802121
0.7497370194
0.7502443034
0.7494320737
0.7497299031
0.7500862623
0.7504950234
0.7509499846
0.7502180839
0.7504864627
0.7508072921
0.7511756076
0.7515863077
0.750925337
0.7511685761
0.751459151
0.7517929841
0.7521658267
0.7515703029
0.751791707
0.7520561148
0.7523601268
0.7527001595
0.7521659966
0.7523681716
0.7526096335
0.752887509
0.7531987402
0.7527219849
0.7529070582
0.7531281811
0.7533828964
0.7536685701
0.753245009
0.7534147709
0.7536177227
0.7538517434
0.7541145471
0.7537397621
0.7538957556
0.7540823828
0.7542978007
0.7545400141
0.7542095541
0.754353126
0.7545250273
0.7547236479
0.7549472389
0.7546568045
0.7547891423
0.7549477192
0.755131123
0.7553378159
0.7550833774
0.7552055341
0.7553520259
0.7555216103
0.7557129315
0.7554908089
0.7556037225
0.7557392316
0.7558962405
0.756073551
0.7558804683
0.7559849771
0.7561104886
0.7562560346
0.7564205544
0.7562533277
0.7563501836
0.7564665841
0.7566016712
0.7567545037
0.7566105696
0.7567004471
0.7568085313
0.75693406
0.7570761969
0.7569531471
0.7570366505
0.7571371311
0.7572539106
0.7573862444
0.7572819342
0.7573596054
0.7574531223
0.7575618805
0.7576852155
0.7575977291
0.7576700564
0.7577571872
0.7578585814
0.7579736456
0.7579012532
0.7579686764
0.7580499416
0.7581445656
0.7582520173
0.758193176
0.7582560947
0.7583319676
0.7584203619
0.7585208013
0.7584741067
0.758532881
0.758603789
0.7586864419
0.7587804126
0.7587446448
0.7587996044
0.7588659391
0.7589432994
0.7590313013
0.7590053216
0.7590567619
0.7591188747
0.7591913451
0.7592738276
0.7592567056
0.7593049009
0.7593631186
0.7594310745
0.759508457
0.7594992258
0.7595444187
0.7595990304
0.7596628041
0.7597354586
0.7597334174
0.7597758382
0.7598271184
0.7598870258
0.7599553058
0.759959526
0.7599993695
0.7600475509
0.7601038598
0.7601680658
0.7601781856
0.7602156466
0.7602609622
0.7603139413
0.760374375
0.7603892961
0.7604245275
0.7604671596
0.7605170189
0.7605739162
0.7605935543
0.7606267342
0.7606668957
0.7607138805
0.7607675164
0.7607876272
0.7608188881
0.7608567374
0.7609010318
0.7609516155
0.7609544348
0.7609841477
0.7610201305
0.7610622512
0.7611103662
0.7671939358
0.769818679
0.7699853215
0.7699972164
0.7699990085
0.7699995042
0.7699996899
0.7699997655
0.7699997966
0.7699998092
0.7699998142
0.7699998163
0.7699998172
0.7699998176
0.7699998178
0.7699998177
0.7699998178
0.7699998182
0.7699998183
0.7699998184
0.7699998184
0.7699998184
0.7699998185
0.7699998185
0.7699998186
0.7699998186
0.7699998187
0.7699998187
0.7699998187
0.7699998188
0.7699998188
0.7699998188
0.7699998188
0.7699998189
0.7699998189
0.7699998189
0.7699998189
0.7699998189
0.7699998189
0.769999819
0.769999819
0.769999819
0.769999819
0.769999819
0.769999819
0.769999819
0.769999819
0.769999819
0.769999819
0.769999819
0.769999819
0.769999819
0.769999819
0.769999819
0.7699998191
0.7699998192
0.7699998199
0.7699998233
0.7699998353
0.769999851
0.7652388088
0.7694955095
0.7699574453
0.7699932897
0.769997774
0.7699988284
0.7699991983
0.7699993559
0.7699994278
0.7699994609
0.769999476
0.7699994831
0.7699994865
0.7699994883
0.7699994892
0.7699994893
0.7699994897
0.7699994904
0.7699994907
0.7699994908
0.7699994909
0.769999491
0.7699994911
0.7699994912
0.7699994913
0.7699994914
0.7699994915
0.7699994916
0.7699994917
0.7699994917
0.7699994918
0.7699994918
0.7699994918
0.7699994919
0.7699994919
0.7699994919
0.769999492
0.769999492
0.769999492
0.769999492
0.769999492
0.769999492
0.769999492
0.769999492
0.769999492
0.769999492
0.769999492
0.769999492
0.769999492
0.769999492
0.769999492
0.769999492
0.769999492
0.7699994919
0.769999492
0.7699994921
0.7699994929
0.7699994955
0.7699995005
0.7699995034
0.7642519073
0.7691974914
0.7699339913
0.7699906713
0.7699969889
0.7699983256
0.7699987719
0.7699989654
0.7699990605
0.7699991083
0.769999133
0.7699991458
0.7699991526
0.7699991564
0.7699991585
0.7699991594
0.7699991601
0.769999161
0.7699991613
0.7699991613
0.7699991614
0.7699991615
0.7699991617
0.7699991619
0.769999162
0.7699991622
0.7699991623
0.7699991625
0.7699991626
0.7699991627
0.7699991627
0.7699991628
0.7699991628
0.7699991629
0.7699991629
0.7699991629
0.7699991629
0.7699991629
0.7699991629
0.7699991629
0.7699991629
0.7699991629
0.7699991629
0.7699991628
0.7699991628
0.7699991628
0.7699991627
0.7699991627
0.7699991627
0.7699991626
0.7699991626
0.7699991625
0.7699991625
0.7699991624
0.7699991624
0.7699991624
0.7699991624
0.7699991617
0.769999157
0.7699991495
0.7610588726
0.7679345228
0.7698025557
0.7699836442
0.7699961428
0.7699979482
0.76999846
0.7699986776
0.7699987898
0.7699988519
0.7699988867
0.7699989057
0.7699989153
0.7699989209
0.7699989241
0.7699989257
0.7699989266
0.769998927
0.7699989269
0.7699989266
0.7699989264
0.7699989263
0.7699989264
0.7699989265
0.7699989266
0.7699989267
0.7699989267
0.7699989268
0.7699989268
0.7699989269
0.7699989269
0.7699989269
0.7699989269
0.7699989269
0.7699989269
0.7699989268
0.7699989268
0.7699989267
0.7699989267
0.7699989266
0.7699989266
0.7699989265
0.7699989265
0.7699989264
0.7699989263
0.7699989262
0.7699989262
0.7699989261
0.769998926
0.7699989259
0.7699989259
0.7699989258
0.7699989257
0.7699989256
0.7699989255
0.7699989253
0.7699989246
0.769998922
0.7699989142
0.7699989053
0.7569250148
0.7656632479
0.7692173257
0.7699311577
0.7699914548
0.7699970111
0.7699980596
0.7699984152
0.7699985832
0.7699986752
0.7699987286
0.7699987595
0.7699987768
0.7699987856
0.7699987895
0.7699987915
0.7699987925
0.7699987929
0.7699987928
0.7699987925
0.7699987923
0.7699987922
0.7699987922
0.7699987923
0.7699987923
0.7699987923
0.7699987923
0.7699987923
0.7699987924
0.7699987923
0.7699987923
0.7699987923
0.7699987923
0.7699987922
0.7699987922
0.7699987921
0.7699987921
0.769998792
0.769998792
0.7699987919
0.7699987918
0.7699987918
0.7699987917
0.7699987916
0.7699987916
0.7699987915
0.7699987914
0.7699987913
0.7699987913
0.7699987912
0.7699987911
0.769998791
0.769998791
0.7699987909
0.7699987907
0.7699987905
0.7699987897
0.7699987871
0.7699987808
0.7699987745
0.7523819081
0.7620353867
0.7675887753
0.769601293
0.7699619242
0.76999329
0.7699971115
0.7699980156
0.769998358
0.7699985249
0.7699986167
0.7699986696
0.7699987
0.7699987167
0.7699987249
0.7699987274
0.7699987282
0.7699987282
0.7699987277
0.7699987272
0.7699987268
0.7699987266
0.7699987264
0.7699987263
0.7699987263
0.7699987262
0.7699987261
0.7699987261
0.769998726
0.7699987259
0.7699987259
0.7699987258
0.7699987257
0.7699987256
0.7699987256
0.7699987255
0.7699987254
0.7699987253
0.7699987253
0.7699987252
0.7699987251
0.769998725
0.769998725
0.7699987249
0.7699987248
0.7699987248
0.7699987247
0.7699987246
0.7699987246
0.7699987245
0.7699987244
0.7699987243
0.7699987243
0.7699987242
0.7699987241
0.7699987238
0.7699987232
0.7699987214
0.7699987176
0.7699987142
0.7481101137
0.7582007959
0.7649238284
0.7685145096
0.7697816116
0.7699767781
0.7699944547
0.7699972019
0.769997994
0.769998328
0.7699984976
0.7699985918
0.7699986459
0.7699986768
0.7699986933
0.7699987008
0.7699987025
0.7699987021
0.7699987014
0.7699987006
0.7699987
0.7699986996
0.7699986993
0.7699986991
0.7699986989
0.7699986987
0.7699986986
0.7699986984
0.7699986983
0.7699986982
0.769998698
0.7699986979
0.7699986978
0.7699986977
0.7699986976
0.7699986975
0.7699986974
0.7699986973
0.7699986973
0.7699986972
0.7699986971
0.769998697
0.7699986969
0.7699986969
0.7699986968
0.7699986967
0.7699986966
0.7699986966
0.7699986965
0.7699986964
0.7699986964
0.7699986963
0.7699986963
0.7699986962
0.7699986961
0.7699986959
0.7699986954
0.7699986943
0.7699986925
0.7699986909
0.7440255355
0.7544992004
0.7617506313
0.7664803246
0.7690717877
0.7698910272
0.7699854783
0.7699952758
0.7699972952
0.7699979957
0.7699983178
0.7699984876
0.7699985833
0.7699986385
0.7699986696
0.7699986859
0.7699986927
0.7699986937
0.7699986926
0.7699986916
0.7699986908
0.7699986902
0.7699986898
0.7699986894
0.7699986892
0.7699986889
0.7699986887
0.7699986885
0.7699986884
0.7699986882
0.7699986881
0.7699986879
0.7699986878
0.7699986877
0.7699986875
0.7699986874
0.7699986873
0.7699986872
0.7699986871
0.769998687
0.7699986869
0.7699986869
0.7699986868
0.7699986867
0.7699986866
0.7699986866
0.7699986865
0.7699986864
0.7699986864
0.7699986863
0.7699986862
0.7699986862
0.7699986861
0.769998686
0.7699986859
0.7699986858
0.7699986854
0.7699986848
0.7699986839
0.7699986831
0.7400559974
0.7510611101
0.7587663609
0.763970848
0.7674671231
0.7694955306
0.7699490325
0.7699901836
0.7699958673
0.7699974054
0.7699980227
0.769998325
0.7699984892
0.7699985834
0.769998638
0.7699986687
0.7699986843
0.7699986903
0.7699986908
0.7699986894
0.7699986884
0.7699986876
0.7699986871
0.7699986866
0.7699986863
0.769998686
0.7699986857
0.7699986855
0.7699986853
0.7699986851
0.769998685
0.7699986848
0.7699986846
0.7699986845
0.7699986844
0.7699986843
0.7699986841
0.769998684
0.7699986839
0.7699986838
0.7699986837
0.7699986837
0.7699986836
0.7699986835
0.7699986834
0.7699986833
0.7699986833
0.7699986832
0.7699986831
0.7699986831
0.769998683
0.7699986829
0.7699986829
0.7699986828
0.7699986827
0.7699986826
0.7699986823
0.7699986818
0.7699986813
0.7699986809
0.7361952826
0.7476109622
0.755857132
0.7616160934
0.7656168628
0.7684938224
0.7697998536
0.769976059
0.7699929581
0.7699963801
0.7699975488
0.7699980728
0.7699983445
0.7699984977
0.7699985876
0.7699986404
0.7699986697
0.7699986842
0.7699986896
0.7699986897
0.7699986884
0.7699986874
0.7699986866
0.7699986861
0.7699986857
0.7699986853
0.769998685
0.7699986848
0.7699986845
0.7699986843
0.7699986841
0.769998684
0.7699986838
0.7699986837
0.7699986835
0.7699986834
0.7699986833
0.7699986832
0.769998683
0.7699986829
0.7699986828
0.7699986828
0.7699986827
0.7699986826
0.7699986825
0.7699986824
0.7699986824
0.7699986823
0.7699986822
0.7699986822
0.7699986821
0.769998682
0.769998682
0.7699986819
0.7699986818
0.7699986816
0.7699986814
0.769998681
0.7699986806
0.7699986803
0.7326395121
0.7440443363
0.7527810405
0.7591021764
0.7636738174
0.767153947
0.7694134171
0.7699348001
0.7699866699
0.7699945752
0.7699968027
0.7699976965
0.769998132
0.7699983706
0.7699985105
0.7699985945
0.769998644
0.7699986713
0.7699986846
0.7699986894
0.7699986892
0.7699986879
0.7699986869
0.7699986863
0.7699986857
0.7699986853
0.769998685
0.7699986847
0.7699986844
0.7699986842
0.769998684
0.7699986838
0.7699986836
0.7699986835
0.7699986833
0.7699986832
0.7699986831
0.7699986829
0.7699986828
0.7699986827
0.7699986826
0.7699986825
0.7699986824
0.7699986824
0.7699986823
0.7699986822
0.7699986821
0.769998682
0.769998682
0.7699986819
0.7699986819
0.7699986818
0.7699986817
0.7699986816
0.7699986815
0.7699986813
0.7699986811
0.7699986807
0.7699986804
0.7699986802
0.7293514232
0.7406624113
0.7496941604
0.7565796008
0.7617650327
0.7657673758
0.7686941895
0.7698271498
0.769971913
0.7699912724
0.7699956439
0.7699971581
0.7699978372
0.7699981941
0.7699984011
0.7699985269
0.7699986036
0.7699986487
0.7699986736
0.7699986855
0.7699986895
0.7699986888
0.7699986876
0.7699986867
0.769998686
0.7699986855
0.7699986851
0.7699986848
0.7699986845
0.7699986843
0.769998684
0.7699986838
0.7699986836
0.7699986835
0.7699986833
0.7699986832
0.769998683
0.7699986829
0.7699986828
0.7699986827
0.7699986826
0.7699986825
0.7699986824
0.7699986823
0.7699986822
0.7699986821
0.7699986821
0.769998682
0.7699986819
0.7699986818
0.7699986818
0.7699986817
0.7699986816
0.7699986815
0.7699986814
0.7699986812
0.769998681
0.7699986806
0.7699986803
0.7699986802
0.7264038681
0.7375583098
0.7467781316
0.7541282443
0.7598974577
0.7644018239
0.7678125195
0.7695756966
0.7699388196
0.7699849275
0.7699938235
0.7699964094
0.7699974483
0.7699979642
0.7699982571
0.7699984356
0.7699985467
0.7699986146
0.7699986548
0.7699986766
0.7699986867
0.7699986896
0.7699986884
0.7699986872
0.7699986864
0.7699986858
0.7699986853
0.7699986849
0.7699986846
0.7699986843
0.7699986841
0.7699986839
0.7699986837
0.7699986835
0.7699986833
0.7699986832
0.7699986831
0.7699986829
0.7699986828
0.7699986827
0.7699986826
0.7699986825
0.7699986824
0.7699986823
0.7699986822
0.7699986821
0.769998682
0.769998682
0.7699986819
0.7699986818
0.7699986817
0.7699986817
0.7699986816
0.7699986815
0.7699986814
0.7699986812
0.7699986809
0.7699986806
0.7699986802
0.7699986801
0.7236909745
0.7346623364
0.7440362202
0.751807578
0.7581203325
0.7631126015
0.7668438818
0.7691147348
0.7698679268
0.769971884
0.7699907135
0.7699953156
0.7699969279
0.7699976687
0.7699980742
0.7699983188
0.7699984723
0.7699985684
0.7699986275
0.769998662
0.7699986801
0.7699986879
0.7699986895
0.7699986879
0.7699986869
0.7699986861
0.7699986856
0.7699986851
0.7699986848
0.7699986845
0.7699986842
0.769998684
0.7699986837
0.7699986836
0.7699986834
0.7699986832
0.7699986831
0.7699986829
0.7699986828
0.7699986827
0.7699986826
0.7699986825
0.7699986824
0.7699986823
0.7699986822
0.7699986821
0.769998682
0.7699986819
0.7699986819
0.7699986818
0.7699986817
0.7699986816
0.7699986816
0.7699986815
0.7699986813
0.7699986811
0.7699986808
0.7699986805
0.7699986802
0.7699986801
0.7211999255
0.7319521469
0.7414690735
0.7497005826
0.7566256067
0.762128257
0.7660328119
0.768448769
0.7697037049
0.7699407369
0.7699847423
0.7699936274
0.7699962179
0.7699972883
0.7699978449
0.7699981738
0.7699983794
0.7699985096
0.7699985916
0.7699986414
0.7699986696
0.7699986837
0.7699986889
0.7699986888
0.7699986875
0.7699986865
0.7699986858
0.7699986853
0.7699986849
0.7699986846
0.7699986843
0.769998684
0.7699986838
0.7699986836
0.7699986834
0.7699986832
0.7699986831
0.7699986829
0.7699986828
0.7699986827
0.7699986826
0.7699986825
0.7699986824
0.7699986823
0.7699986822
0.7699986821
0.769998682
0.7699986819
0.7699986818
0.7699986818
0.7699986817
0.7699986816
0.7699986815
0.7699986814
0.7699986813
0.769998681
0.7699986808
0.7699986804
0.7699986801
0.7699986801
0.718924204
0.7295484229
0.7393593367
0.7482036695
0.7558142445
0.7616933243
0.7655210246
0.7677921629
0.7693694637
0.7698636122
0.769971719
0.7699907172
0.7699951818
0.7699967791
0.7699975512
0.7699979919
0.7699982636
0.769998436
0.7699985458
0.7699986141
0.7699986546
0.7699986766
0.7699986867
0.7699986895
0.7699986881
0.769998687
0.7699986861
0.7699986855
0.7699986851
0.7699986847
0.7699986844
0.7699986841
0.7699986839
0.7699986836
0.7699986835
0.7699986833
0.7699986831
0.769998683
0.7699986828
0.7699986827
0.7699986826
0.7699986825
0.7699986824
0.7699986823
0.7699986822
0.7699986821
0.769998682
0.7699986819
0.7699986818
0.7699986817
0.7699986817
0.7699986816
0.7699986815
0.7699986814
0.7699986812
0.769998681
0.7699986807
0.7699986804
0.7699986801
0.7699986801
0.7175019338
0.7282785164
0.7386180715
0.7481673238
0.7562074389
0.7618828301
0.7652711641
0.767323151
0.7688356424
0.7696826271
0.7699387408
0.7699844971
0.7699933652
0.7699960018
0.7699971381
0.7699977471
0.7699981108
0.7699983393
0.7699984854
0.7699985776
0.7699986338
0.7699986659
0.7699986821
0.7699986885
0.7699986888
0.7699986874
0.7699986865
0.7699986858
0.7699986852
0.7699986848
0.7699986845
0.7699986842
0.7699986839
0.7699986837
0.7699986835
0.7699986833
0.7699986831
0.769998683
0.7699986828
0.7699986827
0.7699986826
0.7699986825
0.7699986823
0.7699986822
0.7699986821
0.7699986821
0.769998682
0.7699986819
0.7699986818
0.7699986817
0.7699986816
0.7699986816
0.7699986814
0.7699986813
0.7699986811
0.7699986809
0.7699986806
0.7699986803
0.7699986801
0.7699986801
0.7181774466
0.7295078281
0.7404969435
0.7503032726
0.7577329849
0.7623414347
0.7650705899
0.7668873909
0.7682712091
0.7693118299
0.7698380915
0.7699658197
0.7699890598
0.7699945446
0.7699964654
0.7699973758
0.7699978877
0.7699982008
0.7699983994
0.7699985253
0.7699986032
0.7699986492
0.7699986742
0.7699986857
0.7699986892
0.769998688
0.7699986869
0.7699986861
0.7699986855
0.769998685
0.7699986846
0.7699986843
0.769998684
0.7699986838
0.7699986836
0.7699986834
0.7699986832
0.769998683
0.7699986829
0.7699986827
0.7699986826
0.7699986825
0.7699986824
0.7699986823
0.7699986822
0.7699986821
0.769998682
0.7699986819
0.7699986818
0.7699986817
0.7699986816
0.7699986815
0.7699986814
0.7699986813
0.7699986811
0.7699986809
0.7699986806
0.7699986803
0.76999868
0.7699986801
0.7223668975
0.7342860979
0.7451614234
0.7536109778
0.7590541115
0.7624394379
0.7647023344
0.7663685976
0.7676819208
0.768752164
0.7695327342
0.7698872934
0.7699736076
0.7699907606
0.7699951287
0.7699967387
0.7699975297
0.7699979846
0.7699982659
0.7699984435
0.7699985545
0.7699986217
0.7699986599
0.7699986796
0.7699986877
0.7699986891
0.7699986876
0.7699986866
0.7699986859
0.7699986854
0.7699986849
0.7699986846
0.7699986843
0.769998684
0.7699986838
0.7699986836
0.7699986834
0.7699986832
0.7699986831
0.7699986829
0.7699986828
0.7699986827
0.7699986826
0.7699986824
0.7699986823
0.7699986822
0.7699986822
0.7699986821
0.769998682
0.7699986819
0.7699986818
0.7699986817
0.7699986816
0.7699986814
0.7699986812
0.7699986809
0.7699986806
0.7699986803
0.76999868
0.7699986802
0.7289264001
0.7400875916
0.748871246
0.7549938134
0.7591102619
0.7619519632
0.7640369997
0.7656687229
0.766990933
0.7680746037
0.7689707082
0.7696172082
0.7699059574
0.7699770889
0.7699916422
0.7699954559
0.7699968982
0.7699976231
0.7699980458
0.7699983078
0.7699984723
0.7699985737
0.7699986338
0.7699986671
0.7699986834
0.7699986893
0.7699986894
0.769998688
0.769998687
0.7699986863
0.7699986858
0.7699986854
0.7699986851
0.7699986848
0.7699986846
0.7699986844
0.7699986842
0.769998684
0.7699986839
0.7699986837
0.7699986836
0.7699986834
0.7699986833
0.7699986832
0.7699986831
0.769998683
0.7699986829
0.7699986828
0.7699986827
0.7699986826
0.7699986825
0.7699986824
0.7699986823
0.7699986821
0.7699986819
0.7699986817
0.7699986814
0.769998681
0.7699986808
0.769998681
0.7337800837
0.7429010122
0.7498040304
0.7547824903
0.7583645529
0.7610202946
0.7630900845
0.7647667202
0.7661527521
0.7673074468
0.7682700027
0.7690728592
0.7696538793
0.7699147282
0.7699789286
0.7699921226
0.7699956292
0.7699969818
0.769997672
0.7699980784
0.7699983309
0.7699984887
0.7699985852
0.7699986414
0.7699986715
0.7699986856
0.7699986899
0.7699986891
0.7699986878
0.7699986869
0.7699986863
0.7699986858
0.7699986855
0.7699986852
0.7699986849
0.7699986847
0.7699986845
0.7699986843
0.7699986842
0.769998684
0.7699986839
0.7699986837
0.7699986836
0.7699986835
0.7699986834
0.7699986833
0.7699986832
0.7699986831
0.769998683
0.7699986829
0.7699986828
0.7699986827
0.7699986826
0.7699986824
0.7699986822
0.7699986819
0.7699986816
0.7699986814
0.7699986811
0.7699986813
0.735946341
0.7434576998
0.7493229409
0.753770786
0.7571579829
0.7598063368
0.7619397709
0.763700591
0.7651774597
0.7664271373
0.7674862708
0.7683791215
0.7691285372
0.7696748095
0.7699206957
0.7699802238
0.7699924265
0.7699957247
0.7699970187
0.7699976909
0.7699980911
0.7699983405
0.769998496
0.7699985902
0.7699986443
0.7699986729
0.7699986858
0.7699986895
0.7699986883
0.7699986871
0.7699986863
0.7699986857
0.7699986853
0.769998685
0.7699986847
0.7699986845
0.7699986843
0.7699986841
0.7699986839
0.7699986838
0.7699986837
0.7699986835
0.7699986834
0.7699986833