/*--------------------------------*- C++ -*----------------------------------*\
  =========                 |
  \\      /  F ield         | OpenFOAM: The Open Source CFD Toolbox
   \\    /   O peration     | Website:  https://openfoam.org
    \\  /    A nd           | Version:  10
     \\/     M anipulation  |
\*---------------------------------------------------------------------------*/
FoamFile
{
    format      ascii;
    class       volScalarField;
    location    "0.0250188088";
    object      O;
}
// * * * * * * * * * * * * * * * * * * * * * * * * * * * * * * * * * * * * * //

dimensions      [0 0 0 0 0 0 0];

internalField   nonuniform List<scalar> 
5170
(
0
0
0
0
0
0
0
0
0
0
0
0
0
0
0
0
0
0
0
0
0
0
0
0
0
0
0
0
0
0
0
0
0
0
0
0
0
0
0
0
0
0
0
0
0
0
0
0
0
0
0
0
0
0
0
0
0
0
0
0
0
0
0
0
0
0
0
0
0
0
0
0
0
0
0
0
0
0
0
0
0
0
0
0
0
0
0
0
0
0
0
0
0
0
0
0
0
8.216214951e-11
7.219533817e-10
3.78025777e-09
0.0004141235258
0.0004140000035
0.0004139833477
0.0004142160148
0.0004142612415
0.000252090047
0.0002697342754
0.0002696336288
0.0002674411258
0.0002444012005
0.0001741687767
0.0001927765906
0.0001928453273
0.0001859725979
0.0001610643197
0.0001301984345
0.000147628841
0.0001481894882
0.0001388024144
0.0001182262085
0.000103262275
0.0001187313678
0.0001191890685
0.0001099837443
9.137222934e-05
8.808990859e-05
0.0001000065795
0.0001011990538
9.196387361e-05
7.719034243e-05
7.535521592e-05
8.764304167e-05
8.857552518e-05
8.133019746e-05
7.121820399e-05
7.042220675e-05
7.714031594e-05
7.821950243e-05
7.453878178e-05
6.706929287e-05
6.732735332e-05
7.183947981e-05
7.26045663e-05
6.942996208e-05
6.293720383e-05
6.384493172e-05
6.826376641e-05
6.874986462e-05
6.581257811e-05
6.147168144e-05
6.196057969e-05
6.5372943e-05
6.569744724e-05
6.252313051e-05
6.000780172e-05
6.034047625e-05
6.241900792e-05
6.259277694e-05
6.112811155e-05
5.900631443e-05
5.926678191e-05
6.099568142e-05
6.116505778e-05
5.978322406e-05
5.806229946e-05
5.834841752e-05
5.973077025e-05
5.985671148e-05
5.877331996e-05
5.717177466e-05
5.747519215e-05
5.878002677e-05
5.887066156e-05
5.780664962e-05
5.628782101e-05
5.667141621e-05
5.787359589e-05
5.792743489e-05
5.685494004e-05
5.535725216e-05
5.584241443e-05
5.699722465e-05
5.701387418e-05
5.594065224e-05
5.440764933e-05
5.506335357e-05
5.616824751e-05
5.612961823e-05
5.501196946e-05
5.347530443e-05
5.58223135e-05
5.564121389e-05
5.526103247e-05
5.405448316e-05
5.256605171e-05
0.0002299700424
8.428727728e-05
5.922523603e-05
5.396365004e-05
5.196966804e-05
5.518058765e-11
5.842001223e-10
9.472007741e-09
1.418943433e-07
2.256489748e-06
2.521069867e-10
1.76265344e-09
1.88925888e-08
1.440380009e-07
1.212615745e-06
5.96907724e-10
3.226771141e-09
2.414310649e-08
1.087461456e-07
5.82445793e-07
1.068454413e-09
4.638862487e-09
2.421803633e-08
7.139524571e-08
2.798871059e-07
1.421874251e-09
4.103498985e-09
0
4.325434742e-08
1.548249459e-07
1.709955412e-09
3.848881654e-09
2.667786242e-09
2.794954895e-08
1.148195267e-07
1.95963623e-09
3.733955389e-09
3.800345066e-09
2.060128738e-08
9.856456493e-08
2.022731223e-09
2.720945196e-09
3.915794344e-09
1.60889022e-08
8.02274074e-08
1.699835854e-09
8.021239753e-13
3.477180174e-09
1.347972832e-08
6.929801294e-08
1.475636948e-09
4.431427709e-10
2.969959021e-09
1.111339428e-08
5.595922628e-08
1.312689332e-09
7.304701326e-10
2.765125085e-09
1.099772101e-08
5.779363143e-08
9.636088541e-10
8.429751385e-10
2.597672496e-09
1.048188506e-08
5.152984559e-08
6.953564825e-10
7.997856261e-10
2.165881202e-09
8.286409996e-09
3.61679497e-08
5.170961842e-10
7.249027334e-10
2.04012081e-09
8.423784051e-09
3.825002905e-08
4.21619094e-10
7.307334606e-10
2.206715865e-09
9.406246685e-09
4.083536984e-08
3.450800512e-10
6.937878244e-10
2.257868545e-09
9.166159664e-09
3.619495605e-08
3.788099776e-10
7.71339274e-10
2.546813027e-09
9.59984727e-09
3.477798941e-08
5.323836155e-10
1.084199216e-09
3.290981986e-09
1.128966065e-08
4.052296281e-08
1.038388019e-09
2.341921153e-09
7.591001378e-09
2.645746835e-08
9.502194853e-08
2.446355933e-09
5.168020555e-09
1.618688316e-08
5.593443611e-08
1.964388073e-07
4.130129571e-09
7.275070576e-09
1.832096028e-08
5.163774692e-08
1.48549958e-07
5.788534832e-09
8.032715533e-09
1.462710827e-08
3.048649065e-08
6.748536539e-08
5.3243696e-09
6.311897971e-09
8.848641143e-09
1.38781258e-08
2.34375916e-08
3.081899614e-09
3.369823547e-09
3.992252986e-09
5.074052715e-09
6.799676279e-09
1.096606618e-09
1.14340885e-09
1.239925389e-09
1.38033936e-09
1.582108566e-09
2.783576699e-10
2.809597546e-10
2.962642236e-10
3.136005712e-10
3.221726391e-10
7.749585313e-11
7.846860794e-11
7.979518692e-11
7.97733365e-11
7.988831714e-11
2.563834489e-11
2.565964595e-11
2.548623939e-11
2.512919313e-11
2.45593603e-11
9.393691743e-12
9.348942732e-12
9.212604548e-12
8.967177413e-12
8.568738607e-12
3.607321162e-12
3.592445809e-12
3.541664587e-12
3.440671694e-12
3.286400259e-12
1.329794341e-12
1.327408013e-12
1.319402461e-12
1.301858277e-12
1.266968321e-12
6.080805968e-13
6.042715407e-13
5.9474087e-13
5.787462554e-13
5.548504418e-13
4.738963268e-13
4.813565853e-13
4.937483646e-13
5.024150575e-13
4.980518617e-13
1.483745774e-12
1.518886909e-12
1.580990492e-12
1.630315948e-12
1.608167072e-12
4.349778332e-12
4.99932319e-12
6.378074425e-12
8.075189364e-12
1.009788511e-11
2.695604026e-11
2.776932001e-11
2.95187831e-11
3.202683935e-11
3.516523167e-11
5.840202493e-11
6.092077187e-11
6.654727362e-11
7.522761589e-11
8.703083105e-11
1.01627725e-10
1.057539394e-10
1.149117774e-10
1.289796057e-10
1.478894922e-10
1.064463194e-10
1.11535748e-10
1.22730167e-10
1.397417673e-10
1.623865824e-10
5.839128886e-11
6.189810418e-11
6.954131788e-11
8.108001614e-11
9.666409371e-11
3.121544854e-14
1.092758022e-12
3.829449474e-12
8.448893598e-12
1.512251811e-11
0
0
0
0
0
0
0
0
0
0
0
0
0
0
0
0
0
0
0
0
0
0
0
0
0
0
0
0
0
0
0
0
0
0
0
0
0
0
0
0
0
0
0
0
0
0
0
0
0
0
0
0
0
0
0
0
0
0
0
0
0
0
0
0
0
0
0
0
0
0
0
0
0
0
0
0
0
0
0
0
0
0
0
0
0
1.688878943e-11
1.640661199e-11
1.541791056e-11
1.40342977e-11
1.239476499e-11
4.955860612e-11
4.863869542e-11
4.670529592e-11
4.391108598e-11
4.036350346e-11
6.137234522e-11
6.031489077e-11
5.806828203e-11
5.47816875e-11
5.057772149e-11
4.597794626e-11
4.499784856e-11
4.289129854e-11
3.977313618e-11
3.573453316e-11
1.197324373e-11
1.127040906e-11
9.764469914e-12
7.514195458e-12
4.498790684e-12
0
0
0
0
0
2.206201731e-13
3.87906823e-13
0
0
0
6.940937771e-10
6.817514481e-10
6.554078575e-10
6.161516719e-10
5.61478465e-10
2.16367586e-09
2.13188317e-09
2.064687334e-09
1.966702515e-09
1.841429272e-09
3.691939116e-09
3.65759719e-09
3.58493841e-09
3.478569272e-09
3.340957349e-09
5.066532349e-09
5.040913807e-09
4.987346697e-09
4.910024119e-09
4.811296537e-09
6.575233333e-09
6.562545626e-09
6.536993887e-09
6.501303319e-09
6.455968667e-09
1.738082723e-05
6.093111137e-06
2.446750704e-06
1.084077457e-06
6.345437128e-07
5.259486451e-07
4.451536463e-07
3.339534305e-07
2.735936176e-07
2.072608685e-07
2.148695016e-07
1.722055879e-07
1.055185415e-07
1.189468524e-07
1.18620913e-07
9.778108625e-08
8.604800684e-08
1.221839784e-07
2.516098478e-07
5.170640101e-07
3.299731424e-07
1.248121702e-07
3.581419017e-08
8.718099252e-09
1.791488432e-09
3.369941271e-10
8.072326369e-11
2.426668099e-11
8.184992509e-12
3.173266701e-12
1.236614655e-12
5.354411501e-13
4.759175642e-13
1.472574503e-12
1.156265124e-11
3.759508468e-11
9.666162252e-11
1.633175741e-10
1.799223997e-10
1.094179168e-10
2.110604225e-11
0
0
0
0
0
0
0
0
0
0
0
0
0
0
0
0
0
1.125416384e-11
3.745992416e-11
4.717634747e-11
3.248252878e-11
2.96606578e-12
0
0
5.205095382e-10
1.738818672e-09
3.224859089e-09
4.727743308e-09
6.417099497e-09
7.227883253e-05
0.000729080331
0.0004108328098
0.000108458618
4.039404102e-05
2.015559956e-05
0.0001434820051
0.001023340495
0.0003936958368
4.574716184e-05
8.361363705e-06
7.208318778e-05
0.0007663500254
0.0008674645129
9.364512429e-05
3.666478175e-06
2.944695749e-05
0.0002362870901
0.001302531909
0.0003091979034
2.283058961e-06
2.066693384e-05
0.0001795584171
0.001427334203
0.0006960090181
2.000558293e-06
1.838830696e-05
0.0001530394469
0.001167602334
0.001081424985
1.586938497e-06
1.405920213e-05
0.000104791826
0.0007224226726
0.001345714526
1.116502291e-06
8.420146698e-06
5.41692492e-05
0.0003210059622
0.001407755912
8.742298355e-07
5.958755155e-06
3.794462174e-05
0.0002285318097
0.001288713157
6.523147909e-07
4.845878543e-06
3.050793918e-05
0.0001816427276
0.001018894854
6.754262812e-07
3.948920981e-06
2.349505189e-05
0.0001316409949
0.0006894983728
4.95879749e-07
2.864363636e-06
1.571049326e-05
8.004651192e-05
0.0003802563336
2.753110802e-07
2.266372085e-06
1.10837252e-05
5.406248936e-05
0.0002475764624
3.337266843e-07
2.056060335e-06
9.18507939e-06
4.432680345e-05
0.0002029905658
3.053857071e-07
1.667716095e-06
7.797334125e-06
3.639629717e-05
0.0001602597566
2.470433605e-07
1.195625653e-06
6.381338705e-06
2.87009197e-05
0.000119062298
2.028839499e-07
9.347665254e-07
5.584848884e-06
2.387384152e-05
9.518444643e-05
3.062501914e-07
1.50592297e-06
6.981134449e-06
2.945409013e-05
0.0001190390814
6.141653608e-07
3.011385542e-06
1.374026054e-05
5.915205991e-05
0.0002415424429
1.325180775e-06
6.812999238e-06
3.310029872e-05
0.0001583161383
0.0007514864229
7.519346166e-07
2.889700188e-06
9.99795469e-06
3.174655314e-05
8.749434215e-05
2.518724908e-07
7.495230734e-07
1.978527757e-06
4.642970147e-06
9.100236586e-06
6.228468622e-08
1.450256379e-07
3.051327663e-07
5.678526482e-07
8.802075184e-07
1.276503469e-08
2.282240211e-08
3.877449242e-08
6.068325139e-08
8.151503622e-08
2.311862011e-09
3.188053438e-09
4.468815676e-09
6.094164007e-09
7.480469016e-09
3.731117701e-10
4.194016605e-10
4.714107925e-10
5.360824056e-10
5.917178844e-10
8.431073218e-11
8.634545362e-11
8.61528505e-11
8.53533164e-11
8.388338863e-11
2.450787152e-11
2.397398933e-11
2.257071065e-11
1.91730465e-11
1.467615776e-11
7.768994474e-12
7.807191793e-12
7.072824549e-12
5.658903642e-12
3.134649908e-12
3.054274862e-12
2.711538507e-12
2.374935255e-12
2.063918322e-12
1.475619393e-12
1.208757309e-12
1.091907795e-12
9.365337339e-13
8.417612397e-13
6.997604396e-13
5.130340567e-13
4.493368534e-13
3.816354059e-13
3.171870528e-13
2.433572782e-13
4.181574368e-13
2.349969924e-13
0
0
7.397655791e-14
1.09607665e-12
2.830533305e-12
5.138239112e-12
7.22440003e-12
8.660152657e-12
1.338633435e-11
1.753132153e-11
2.265990671e-11
2.858050492e-11
4.579083553e-11
4.075251768e-11
4.942871886e-11
7.082977184e-11
9.937432697e-11
1.327816801e-10
1.099005301e-10
1.397388567e-10
1.813780083e-10
2.317053174e-10
3.044697478e-10
1.857373331e-10
2.325392886e-10
2.97904115e-10
3.676455292e-10
4.428469784e-10
2.060990238e-10
2.55553604e-10
3.130126233e-10
3.750614413e-10
4.423189753e-10
1.296781947e-10
1.664659288e-10
2.070021793e-10
2.524803957e-10
3.07848738e-10
3.143849594e-11
5.296342309e-11
8.087068971e-11
1.188087078e-10
1.52460599e-10
0
7.501010953e-12
1.37414792e-11
1.905132917e-11
2.480700627e-11
0
0
0
0
0
0
0
0
0
0
0
0
0
0
0
0
0
0
0
0
0
0
0
0
0
0
0
0
0
0
0
0
0
0
0
0
0
0
0
0
0
0
0
0
0
0
0
0
0
0
0
0
0
0
0
0
0
0
0
0
0
0
0
0
0
0
0
0
0
0
0
0
0
0
0
0
0
0
0
0
8.786341359e-12
5.284869772e-12
2.44749139e-12
8.131087761e-13
0
3.252520407e-11
2.496769966e-11
1.799078555e-11
1.177250712e-11
6.643101245e-12
4.15823348e-11
3.264051592e-11
2.372295399e-11
1.529212722e-11
7.973350119e-12
2.732197671e-11
1.890113947e-11
1.097304979e-11
3.9531949e-12
0
5.588440778e-13
0
0
0
0
0
0
0
0
0
0
0
0
0
0
4.499359858e-10
3.389831981e-10
2.303875975e-10
1.230116498e-10
4.533462226e-11
1.561135627e-09
1.277359504e-09
9.954258106e-10
7.382977961e-10
5.089866266e-10
3.021928527e-09
2.698088187e-09
2.403609676e-09
2.143929368e-09
1.927011353e-09
4.577768868e-09
4.357981854e-09
4.168230652e-09
4.018475608e-09
3.917350632e-09
6.335536761e-09
6.242993146e-09
6.19809473e-09
6.200452774e-09
6.248069452e-09
6.619645995e-07
3.073554299e-08
0
0
0
0
0
0
0
0
0
0
0
0
0
0
0
0
0
0
0
0
0
0
0
0
0
0
0
0
0
0
0
0
0
0
0
0
0
0
0
0
0
0
0
0
0
0
0
0
0
0
0
0
0
0
0
0
0
0
1.138384175e-06
3.272894616e-08
1.427695692e-09
0
0
0
0
0
0
0
0
0
0
0
0
0
0
0
0
0
0
0
0
0
0
0
0
0
0
0
0
0
0
0
0
0
0
0
0
0
0
0
0
0
0
0
0
0
0
0
0
0
0
0
0
0
0
0
0
0
2.555873679e-06
8.832172164e-08
5.300250716e-09
0
0
0
0
0
0
0
0
0
0
0
0
0
0
0
0
0
0
0
0
0
0
0
0
0
0
0
0
0
0
0
0
0
0
0
0
0
0
0
0
0
0
0
0
0
0
0
0
0
0
0
0
0
0
0
0
0
1.151796553e-05
4.86454143e-07
4.313937553e-08
2.064459143e-10
0
0
0
0
0
0
0
0
0
0
0
0
0
0
0
0
0
0
0
0
0
0
0
0
0
0
0
0
0
0
0
0
0
0
0
0
0
0
0
0
0
0
0
0
0
0
0
0
0
0
0
0
0
0
0
0
4.443280203e-05
1.861962135e-06
1.467361015e-07
5.251991013e-09
0
0
0
0
0
0
0
0
0
0
0
0
0
0
0
0
0
0
0
0
0
0
0
0
0
0
0
0
0
0
0
0
0
0
0
0
0
0
0
0
0
0
0
0
0
0
0
0
0
0
0
0
0
0
0
0
0.0001670847976
8.331840265e-06
4.662040284e-07
5.846782779e-08
2.138654073e-09
0
0
0
0
0
0
0
0
0
0
0
0
0
0
0
0
0
0
0
0
0
0
0
0
0
0
0
0
0
0
0
0
0
0
0
0
0
0
0
0
0
0
0
0
0
0
0
0
0
0
0
0
0
0
0
0.0003998758123
2.854572988e-05
1.779760584e-06
1.223160255e-07
1.26512146e-08
0
0
0
0
0
0
0
0
0
0
0
0
0
0
0
0
0
0
0
0
0
0
0
0
0
0
0
0
0
0
0
0
0
0
0
0
0
0
0
0
0
0
0
0
0
0
0
0
0
0
0
0
0
0
0
0.0006971846936
8.870466665e-05
6.088975043e-06
4.210633375e-07
0
0
0
0
0
0
0
0
0
0
0
0
0
0
0
0
0
0
0
0
0
0
0
0
0
0
0
0
0
0
0
0
0
0
0
0
0
0
0
0
0
0
0
0
0
0
0
0
0
0
0
0
0
0
0
0
0.001003599211
0.0002142725685
1.794563457e-05
1.459092538e-06
1.135193763e-07
0
0
0
0
0
0
0
0
0
0
0
0
0
0
0
0
0
0
0
0
0
0
0
0
0
0
0
0
0
0
0
0
0
0
0
0
0
0
0
0
0
0
0
0
0
0
0
0
0
0
0
0
0
0
0
0.001237959688
0.0004057664014
4.871063258e-05
4.018110315e-06
3.614253254e-07
3.248688911e-08
1.703232608e-09
0
0
0
0
0
0
0
0
0
0
0
0
0
0
0
0
0
0
0
0
0
0
0
0
0
0
0
0
0
0
0
0
0
0
0
0
0
0
0
0
0
0
0
0
0
0
0
0
0
0
0
0
0
0.001342293433
0.0006519939442
0.0001256006998
1.104168613e-05
9.577942353e-07
8.634070629e-08
0
0
0
0
0
0
0
0
0
0
0
0
0
0
0
0
0
0
0
0
0
0
0
0
0
0
0
0
0
0
0
0
0
0
0
0
0
0
0
0
0
0
0
0
0
0
0
0
0
0
0
0
0
0
0.001317356625
0.0008953783246
0.0002577480879
2.824924399e-05
2.290839365e-06
1.975521182e-07
1.613774082e-08
3.296846571e-10
0
0
0
0
0
0
0
0
0
0
0
0
0
0
0
0
0
0
0
0
0
0
0
0
0
0
0
0
0
0
0
0
0
0
0
0
0
0
0
0
0
0
0
0
0
0
0
0
0
0
0
0
0.001197036656
0.001102152208
0.0004321854287
6.905013024e-05
5.425061775e-06
4.302906398e-07
3.85687954e-08
0
0
0
0
0
0
0
0
0
0
0
0
0
0
0
0
0
0
0
0
0
0
0
0
0
0
0
0
0
0
0
0
0
0
0
0
0
0
0
0
0
0
0
0
0
0
0
0
0
0
0
0
0
0.0009991030432
0.001243710148
0.0006329510937
0.0001510415833
1.256275623e-05
9.454993532e-07
8.237475559e-08
9.447398717e-12
0
0
0
0
0
0
0
0
0
0
0
0
0
0
0
0
0
0
0
0
0
0
0
0
0
0
0
0
0
0
0
0
0
0
0
0
0
0
0
0
0
0
0
0
0
0
0
0
0
0
0
0
0.0007594758337
0.001313035086
0.0008492134079
0.0002743681868
2.484848147e-05
1.809773051e-06
1.564771547e-07
1.709989447e-08
5.638083013e-10
0
0
0
0
0
0
0
0
0
0
0
0
0
0
0
0
0
0
0
0
0
0
0
0
0
0
0
0
0
0
0
0
0
0
0
0
0
0
0
0
0
0
0
0
0
0
0
0
0
0
0
0.0005293523109
0.001318585071
0.001048283574
0.0004064643718
3.797634502e-05
2.733400747e-06
2.387834707e-07
3.143207803e-08
0
0
0
0
0
0
0
0
0
0
0
0
0
0
0
0
0
0
0
0
0
0
0
0
0
0
0
0
0
0
0
0
0
0
0
0
0
0
0
0
0
0
0
0
0
0
0
0
0
0
0
0
0.0004064154086
0.001318458262
0.001171695848
0.0004552804897
3.944532513e-05
2.827249574e-06
2.514286405e-07
3.145753599e-08
0
0
0
0
0
0
0
0
0
0
0
0
0
0
0
0
0
0
0
0
0
0
0
0
0
0
0
0
0
0
0
0
0
0
0
0
0
0
0
0
0
0
0
0
0
0
0
0
0
0
0
0
0.0005156587166
0.001422420243
0.001133331503
0.0002032664957
1.584867487e-05
1.206975927e-06
1.283295373e-07
1.720164288e-08
0
0
0
0
0
0
0
0
0
0
0
0
0
0
0
0
0
0
0
0
0
0
0
0
0
0
0
0
0
0
0
0
0
0
0
0
0
0
0
0
0
0
0
0
0
0
0
0
0
0
0
0
0.001040433052
0.00155304875
0.000854865633
7.775878243e-05
5.599454654e-06
4.504759786e-07
4.95244606e-08
6.950365107e-09
3.665719978e-10
0
0
0
0
0
0
0
0
0
0
0
0
0
0
0
0
0
0
0
0
0
0
0
0
0
0
0
0
0
0
0
0
0
0
0
0
0
0
0
0
0
0
0
0
0
0
0
0
0
0
0
0.001778434676
0.001540240779
0.0001746946283
1.440732846e-05
1.114845432e-06
1.057954446e-07
1.499308048e-08
3.003620795e-09
1.674606351e-11
0
0
0
0
0
0
0
0
0
0
0
0
0
0
0
0
0
0
0
0
0
0
0
0
0
0
0
0
0
0
0
0
0
0
0
0
0
0
0
0
0
0
0
0
0
0
0
0
0
0
0
0.0001462778494
9.760412015e-05
1.561707757e-05
1.707099643e-06
1.804692312e-07
2.402113553e-08
4.951286984e-09
1.147860182e-09
1.596596642e-12
0
0
0
0
0
0
0
0
0
0
0
0
0
0
0
0
0
0
0
0
0
0
0
0
0
0
0
0
0
0
0
0
0
0
0
0
0
0
0
0
0
0
0
0
0
0
0
0
0
0
0
1.184277169e-05
6.451490237e-06
1.317543741e-06
1.985383418e-07
2.9548733e-08
5.571903308e-09
1.118268636e-09
3.142201574e-10
1.85893279e-11
0
0
0
0
0
0
0
0
0
0
0
0
0
0
0
0
0
0
0
0
0
0
0
0
0
0
0
0
0
0
0
0
0
0
0
0
0
0
0
0
0
0
0
0
0
0
0
0
0
0
0
9.683485051e-07
4.843409635e-07
1.241747273e-07
2.493440568e-08
5.167109773e-09
1.419853904e-09
4.824917618e-10
1.153340288e-10
3.320379455e-12
0
0
0
0
0
0
0
0
0
0
0
0
0
0
0
0
0
0
0
0
0
0
0
0
0
0
0
0
0
0
0
0
0
0
0
0
0
0
0
0
0
0
0
0
0
0
0
0
0
0
0
8.265447898e-08
4.192603156e-08
1.300935305e-08
3.386655162e-09
9.543905883e-10
2.787395536e-10
9.890382125e-11
3.009106405e-11
1.866415042e-12
0
0
0
0
0
0
0
0
0
0
0
0
0
0
0
0
0
0
0
0
0
0
0
0
0
0
0
0
0
0
0
0
0
0
0
0
0
0
0
0
0
0
0
0
0
0
0
0
0
0
0
7.337643148e-09
3.912574899e-09
1.18234899e-09
4.430119977e-10
1.793309156e-10
7.360232991e-11
2.911670004e-11
8.003495742e-12
3.610021616e-13
0
0
0
0
0
0
0
2.692856979e-10
0
0
0
0
0
0
0
0
0
0
0
0
0
0
0
0
0
0
0
0
0
0
0
0
0
0
0
0
0
0
0
0
0
0
0
0
0
0
0
0
0
0
0
5.690447011e-10
3.415064115e-10
1.744467051e-10
1.006283271e-10
4.302721738e-11
1.49943659e-11
6.461142652e-12
1.48086165e-12
0
3.612781084e-15
0
0
0
0
0
0
2.856392248e-09
3.787098327e-09
7.626359651e-10
0
0
0
0
0
0
0
0
0
0
0
0
0
0
0
0
0
0
0
0
0
0
0
0
0
0
0
0
0
0
0
0
0
0
0
0
0
0
0
0
0
7.894248426e-11
5.231369911e-11
3.016233554e-11
5.789254525e-12
6.520390975e-12
0
5.041954139e-13
0
0
3.130185584e-15
4.178379966e-14
0
0
0
0
0
0
4.212086783e-09
4.286767801e-09
5.055307418e-10
0
0
0
0
0
0
0
0
0
0
0
0
0
0
0
0
0
0
0
0
0
0
0
0
0
0
0
0
0
0
0
0
0
0
0
0
0
0
0
0
1.707668095e-11
1.311976211e-11
6.95839492e-12
3.335126847e-12
1.461243087e-12
3.565492831e-13
1.664166275e-13
0
0
0
0
0
0
0
0
0
0
0
5.204811406e-09
4.554495314e-09
3.670566927e-10
0
0
0
0
0
0
0
0
0
0
0
0
0
0
0
0
0
0
0
0
0
0
0
0
0
0
0
0
0
0
0
0
0
0
0
0
0
0
0
3.387463889e-12
2.527047816e-12
1.745480207e-12
9.122461518e-13
1.133024672e-13
1.144020674e-13
3.959397588e-14
0
0
0
0
0
0
7.078969669e-14
0
0
0
0
8.972317589e-09
1.408494582e-08
7.613970751e-09
7.215516008e-10
0
0
0
0
0
0
0
0
0
0
0
0
0
0
0
0
0
0
0
0
0
0
0
0
0
0
0
0
0
0
0
0
0
0
0
0
0
0
6.496063495e-13
8.419353368e-13
6.175435751e-13
2.437419747e-13
1.574008493e-13
1.131568136e-13
6.526902168e-14
2.628908985e-15
0
0
0
0
0
0
0
9.634953255e-12
0
0
0
1.28768169e-08
1.686916309e-08
6.758462483e-09
2.092581948e-10
0
0
0
0
0
0
0
0
0
0
0
0
0
0
0
0
0
0
0
0
0
0
0
0
0
0
0
0
0
0
0
0
0
0
0
0
0
5.349790481e-13
4.077213223e-13
2.554792836e-13
6.07582466e-14
7.618037113e-14
5.468498404e-14
0
0
0
0
0
6.135901038e-15
0
0
0
0
0
0
0
0
1.536381749e-08
1.731765845e-08
5.083759914e-09
0
0
0
0
0
0
0
0
0
0
0
0
0
0
0
0
0
0
0
0
0
0
0
0
0
0
0
0
0
0
0
0
0
0
0
0
0
1.176819971e-13
5.794726715e-14
3.079649125e-14
4.276789138e-14
4.080549641e-13
0
0
0
0
0
0
0
0
0
0
0
0
0
0
0
2.06165168e-08
3.351836578e-08
2.402658117e-08
5.015972355e-09
0
0
0
0
0
0
0
0
0
0
0
0
0
0
0
0
0
0
0
0
0
0
0
0
0
0
0
0
0
0
0
0
0
0
0
0
0
2.435849942e-13
1.808875569e-12
1.202943677e-12
0
0
0
6.79282728e-13
0
2.111461477e-11
5.579017268e-15
0
1.696813797e-12
0
0
0
0
0
0
0
0
2.790625733e-08
3.883047082e-08
2.112331019e-08
3.041418729e-09
0
0
0
0
0
0
0
0
0
0
0
0
0
0
0
0
0
0
0
0
0
0
0
0
0
0
0
0
0
0
0
0
0
0
0
1.647588062e-11
2.977612453e-11
3.862935909e-11
5.922805995e-11
7.840336181e-11
1.038111646e-10
1.124603155e-10
1.483130386e-10
2.214967415e-10
2.644425858e-10
2.617469946e-10
2.169623897e-10
8.588760972e-11
7.480832144e-11
6.086796405e-14
0
0
3.225239777e-12
0
0
0
0
3.277499989e-08
3.944441449e-08
1.555128756e-08
1.281945765e-09
0
0
0
0
0
0
0
0
0
0
0
0
0
0
0
0
0
0
0
0
0
0
0
0
0
0
0
0
0
0
0
0
0
0
6.929984997e-11
9.547861858e-11
1.765115868e-10
2.647121428e-10
3.520285897e-10
4.630551706e-10
5.544149559e-10
6.139502413e-10
7.026306574e-10
7.446443201e-10
7.033225836e-10
5.881732668e-10
3.619713155e-10
2.175863668e-10
0
0
0
0
0
0
0
0
3.476226832e-08
5.55636978e-08
4.284428601e-08
1.105969769e-08
1.898841358e-10
0
0
0
0
0
0
0
0
0
0
0
0
0
0
0
0
0
0
0
0
0
0
0
0
0
0
0
0
0
0
0
0
0
1.695745711e-10
2.630033154e-10
4.040863104e-10
5.802366705e-10
7.416933473e-10
9.090796669e-10
1.053436877e-09
1.130742449e-09
1.22358694e-09
1.218348348e-09
1.106659549e-09
9.322165348e-10
6.322609045e-10
3.486175819e-10
0
0
0
0
0
0
0
0
0
4.420478264e-08
6.025014429e-08
3.656077837e-08
6.527076173e-09
0
0
0
0
0
0
0
0
0
0
0
0
0
0
0
0
0
0
0
0
0
0
0
0
0
0
0
0
0
0
0
0
0
3.896806235e-10
5.239265889e-10
7.246139122e-10
9.121501216e-10
1.089307908e-09
1.254765167e-09
1.391555088e-09
1.45278963e-09
1.519250288e-09
1.471872204e-09
1.319923848e-09
1.092170044e-09
7.500336548e-10
3.704034269e-10
9.759034282e-11
2.776001052e-12
0
0
0
0
0
0
0
4.400159535e-08
7.69748504e-08
7.319860622e-08
3.112714144e-08
3.654425345e-09
0
0
0
0
0
0
0
0
0
0
0
0
0
0
0
0
0
0
0
0
0
0
0
0
0
0
0
0
0
0
0
0
5.33240658e-10
6.694833426e-10
8.650930086e-10
1.033865225e-09
1.182745501e-09
1.310353975e-09
1.403655295e-09
1.419065716e-09
1.441448866e-09
1.361562607e-09
1.20077519e-09
9.561336205e-10
6.486406076e-10
3.082657046e-10
1.307358876e-10
0
0
0
0
0
0
0
0
0
6.421253974e-08
9.347977315e-08
7.054320313e-08
2.020596531e-08
1.092204347e-09
0
0
0
0
0
0
0
0
0
0
0
0
0
0
0
0
0
0
0
0
0
0
0
0
0
0
0
0
0
0
0
5.255599208e-10
6.726556931e-10
8.110051654e-10
9.30402062e-10
1.038451628e-09
1.097325192e-09
1.137948273e-09
1.122762191e-09
1.06781898e-09
9.459022063e-10
7.791476058e-10
5.620284362e-10
3.118830565e-10
6.961777437e-11
1.990276702e-11
0
8.63312742e-13
0
0
0
0
0
0
0
3.57259788e-08
9.855252188e-08
1.088171466e-07
6.270079705e-08
1.223327799e-08
9.151313224e-12
0
0
0
0
0
0
0
0
0
0
0
0
0
0
0
0
0
0
0
0
0
0
0
0
0
0
0
0
0
0
3.919237495e-10
4.81739039e-10
5.622632779e-10
6.247987315e-10
6.806992503e-10
6.86583466e-10
6.851194485e-10
6.376007365e-10
5.634332585e-10
4.455711651e-10
3.19990701e-10
1.859260289e-10
6.325150128e-11
0
3.63302399e-13
0
0
0
0
0
0
0
0
0
7.889538942e-09
9.055616461e-08
1.311702905e-07
1.115433397e-07
4.754709186e-08
6.068231799e-09
0
0
0
0
0
0
0
0
0
0
0
0
0
0
0
0
0
0
0
0
0
0
0
0
0
0
0
0
0
0
1.887709719e-10
2.255249743e-10
2.544185916e-10
2.881225622e-10
3.031127379e-10
2.87915135e-10
2.73723223e-10
2.256917624e-10
1.756825067e-10
9.912994144e-11
4.369318627e-11
1.177666933e-12
0
0
2.890528978e-13
0
0
0
0
0
0
0
0
0
0
3.182410529e-08
1.232096908e-07
1.470957008e-07
1.018536012e-07
3.052145822e-08
2.126484814e-09
0
0
0
0
0
0
0
0
0
0
0
0
0
0
0
0
0
0
0
0
0
0
0
0
0
0
0
0
0
3.206627294e-11
3.906642355e-11
4.305692472e-11
5.617395593e-11
4.268406468e-11
4.256329448e-11
4.187040428e-11
2.004620194e-11
1.511362473e-11
0
2.865369881e-14
0
0
0
0
0
0
0
0
4.316813986e-12
4.691274161e-12
9.304211598e-12
0
0
0
2.21223551e-08
1.200015242e-07
1.70954242e-07
1.547590607e-07
8.244054891e-08
1.606641071e-08
1.261458941e-10
0
0
0
0
0
0
0
0
0
0
0
0
0
0
0
0
0
0
0
0
0
0
0
0
0
0
0
0
0
0
5.507712371e-13
1.710701424e-12
0
0
0
0
0
0
0
0
0
0
2.971490143e-13
0
0
0
0
0
0
0
0
0
0
0
5.720413615e-08
1.615198489e-07
1.904168459e-07
1.44591558e-07
5.916059e-08
7.611019349e-09
0
0
0
0
0
0
0
0
0
0
0
0
0
0
0
0
0
0
0
0
0
0
0
0
0
0
0
0
0
0
0
0
0
0
0
0
0
0
0
0
0
0
2.413499167e-13
0
0
0
0
0
0
0
0
0
0
0
4.584404955e-08
1.590683283e-07
2.163627983e-07
2.001140506e-07
1.232755465e-07
3.606222677e-08
2.412360225e-09
0
0
0
0
0
0
0
0
0
0
0
0
0
0
0
0
0
0
0
0
0
0
0
0
0
0
0
0
0
0
0
0
0
0
0
0
0
0
0
0
0
0
0
0
0
0
0
0
0
0
0
0
0
2.24118628e-08
1.015307246e-07
2.125952709e-07
2.40277283e-07
1.904571139e-07
9.365046865e-08
1.75044346e-08
7.45211104e-11
0
0
0
0
0
0
0
0
0
0
0
0
0
0
0
0
0
0
0
0
0
0
0
0
0
0
0
0
0
0
0
0
0
0
0
0
0
0
0
0
0
0
0
0
1.560135037e-12
0
0
0
0
0
0
0
1.484257629e-08
8.88413298e-08
2.123036805e-07
2.687811395e-07
2.485128034e-07
1.659224871e-07
6.265112521e-08
7.273681353e-09
0
0
0
0
0
0
0
0
0
0
0
0
0
0
0
0
0
0
0
0
0
0
0
0
0
0
0
0
0
0
0
0
0
6.336436774e-12
1.418656513e-11
4.967817819e-11
1.06736944e-10
1.68650718e-10
2.440593182e-10
3.895303597e-10
6.685932572e-10
8.566430728e-10
8.237772823e-10
1.230025675e-09
1.691653785e-09
1.652582254e-09
1.487182726e-09
1.490271875e-09
2.456919074e-09
3.667801013e-09
0
2.74368433e-09
1.781220305e-08
8.311687155e-08
1.941570472e-07
2.853850561e-07
2.987101917e-07
2.386726502e-07
1.324212889e-07
3.508106442e-08
1.661828184e-09
0
0
0
0
0
0
0
0
0
0
0
0
0
0
0
0
0
0
0
0
0
0
0
0
0
0
0
0
0
4.797073261e-12
1.737531103e-11
6.878890516e-11
1.391841058e-10
2.367648733e-10
4.143315568e-10
6.566351089e-10
9.705884034e-10
1.387010696e-09
2.047939992e-09
2.978622511e-09
3.961422087e-09
4.920305787e-09
6.491086252e-09
8.452801016e-09
1.009846022e-08
1.01363133e-08
1.076467989e-08
1.241271628e-08
1.388121316e-08
1.344879614e-08
9.866623012e-09
1.421666258e-08
6.216728453e-08
1.51907052e-07
2.753789725e-07
3.260512355e-07
2.986128082e-07
2.086490025e-07
9.245737005e-08
1.499972941e-08
0
0
0
0
0
0
0
0
0
0
0
0
0
0
0
0
0
0
0
0
0
0
0
0
0
0
1.210598347e-13
5.355109657e-12
1.613950694e-11
3.927235749e-11
1.04634865e-10
2.098455663e-10
3.556736076e-10
5.617252345e-10
8.867337389e-10
1.320983483e-09
1.889688125e-09
2.636766469e-09
3.738104117e-09
5.197069404e-09
6.79611129e-09
8.455871782e-09
1.075053369e-08
1.355350022e-08
1.622914613e-08
1.702239034e-08
1.894576729e-08
2.123912624e-08
2.447890288e-08
2.781619711e-08
2.525892847e-08
3.638882694e-08
6.315861461e-08
1.409799381e-07
2.690098592e-07
3.442652755e-07
3.479372617e-07
2.810759231e-07
1.683918386e-07
5.605824217e-08
4.696694064e-09
0
0
0
0
0
0
0
0
0
0
0
0
0
0
0
0
0
0
0
0
0
0
0
0
0
3.931488761e-12
1.397315237e-11
3.679646568e-11
8.430609279e-11
1.741244974e-10
3.047078354e-10
4.917218786e-10
7.576138747e-10
1.147450609e-09
1.680721941e-09
2.366286029e-09
3.268324429e-09
4.558643596e-09
6.219083722e-09
8.025478538e-09
9.886799385e-09
1.23524293e-08
1.520391021e-08
1.784247259e-08
1.920738429e-08
2.152811255e-08
2.40058016e-08
2.71773206e-08
2.982752064e-08
2.636820718e-08
3.168919901e-08
4.444084402e-08
1.008056235e-07
1.974064697e-07
3.218672984e-07
3.702560748e-07
3.392336862e-07
2.448407128e-07
1.219119178e-07
2.655641386e-08
2.310457721e-10
0
0
0
0
0
0
0
0
0
0
0
0
0
0
0
0
0
0
0
0
0
0
0
0
1.912322582e-12
1.222340355e-11
3.469272774e-11
8.777373033e-11
1.678854976e-10
2.854262047e-10
4.584730828e-10
7.136805103e-10
1.079776923e-09
1.582365156e-09
2.223031728e-09
3.1033321e-09
4.373872818e-09
5.994661374e-09
7.711775294e-09
9.551419221e-09
1.192737938e-08
1.472327552e-08
1.745287234e-08
1.943928556e-08
2.253895634e-08
2.600937549e-08
3.046281368e-08
3.482080142e-08
3.735066728e-08
3.766119864e-08
4.458271323e-08
9.217278929e-08
1.835957193e-07
3.195437936e-07
3.948304351e-07
3.939892462e-07
3.211150371e-07
2.018205588e-07
7.716878973e-08
8.617205415e-09
0
0
0
0
0
0
0
0
0
0
0
0
0
0
0
0
0
0
0
0
0
0
0
4.120498738e-14
1.999162246e-12
6.663438275e-12
2.388255771e-11
5.645995565e-11
1.094542656e-10
1.915841566e-10
3.136818806e-10
5.02805078e-10
7.733559922e-10
1.154982261e-09
1.655473841e-09
2.408798071e-09
3.53611917e-09
4.995820989e-09
6.56942858e-09
8.321816051e-09
1.069155869e-08
1.363213949e-08
1.674823731e-08
1.949147319e-08
2.370765644e-08
2.902747022e-08
3.494971675e-08
4.22315723e-08
5.001867969e-08
5.196786292e-08
6.608847843e-08
9.16167203e-08
1.608438616e-07
2.664897488e-07
3.921036341e-07
4.330074905e-07
3.900125972e-07
2.836819529e-07
1.50442384e-07
3.964769491e-08
9.610549952e-10
0
0
0
0
0
0
0
0
0
0
0
0
0
0
0
0
0
0
0
0
0
0
0
0
0
4.390963479e-12
1.546182238e-11
3.535120195e-11
6.853060071e-11
1.179693625e-10
2.08119064e-10
3.547570944e-10
5.691048188e-10
8.606589359e-10
1.428136562e-09
2.335111538e-09
3.547823875e-09
4.890089604e-09
6.511273557e-09
8.858618875e-09
1.191632729e-08
1.550553704e-08
1.937323124e-08
2.333083345e-08
2.901974886e-08
3.551274542e-08
4.332136452e-08
5.089811192e-08
5.446518118e-08
6.696040511e-08
8.563411429e-08
1.459767733e-07
2.47723202e-07
3.871483471e-07
4.560024058e-07
4.436729274e-07
3.59482655e-07
2.314135643e-07
9.788254578e-08
1.394774738e-08
0
0
0
0
0
0
0
0
0
0
0
0
0
0
0
0
0
0
0
0
0
0
0
0
0
0
0
1.401692063e-12
3.201636713e-12
4.780856179e-12
1.307841475e-11
3.726828782e-11
6.917915541e-11
1.307550087e-10
4.068426773e-10
9.43182934e-10
1.715369465e-09
2.592690682e-09
3.801814865e-09
5.770339482e-09
8.431091108e-09
1.169794979e-08
1.522677534e-08
1.941113128e-08
2.541491148e-08
3.255230907e-08
4.147716097e-08
5.106559168e-08
6.000977302e-08
7.213951763e-08
9.491539195e-08
1.371499793e-07
2.249772886e-07
3.519947498e-07
4.577396532e-07
4.814624654e-07
4.263091455e-07
3.124394048e-07
1.739695527e-07
5.260422011e-08
1.759485624e-09
0
0
0
0
0
0
0
0
0
0
0
0
0
0
0
0
0
0
0
0
0
0
0
0
0
3.842959753e-15
0
0
0
8.560963119e-14
2.491031429e-13
0
0
0
2.65241402e-12
1.306451082e-10
2.92773225e-10
7.816531892e-10
1.968530685e-09
3.755055339e-09
6.149689079e-09
8.896471135e-09
1.266863906e-08
1.849276265e-08
2.583515173e-08
3.47895875e-08
4.541564025e-08
5.669932741e-08
6.337035986e-08
8.123464125e-08
1.080946606e-07
1.790841453e-07
2.898857184e-07
4.297856535e-07
4.934909669e-07
4.751791563e-07
3.863011207e-07
2.54669326e-07
1.162154387e-07
1.97608413e-08
0
0
0
0
0
0
0
0
0
0
0
0
0
0
0
0
0
0
0
0
0
0
0
0
4.19155596e-16
0
0
0
0
0
0
0
0
0
1.914509762e-12
0
0
0
0
3.245939678e-10
1.423282878e-09
3.061689838e-09
5.798344394e-09
1.087113069e-08
1.778352285e-08
2.578687443e-08
3.533409559e-08
4.482067118e-08
5.161321104e-08
6.728294059e-08
8.920524749e-08
1.530685018e-07
2.609819917e-07
4.120153733e-07
5.027048821e-07
5.165462462e-07
4.544441418e-07
3.358917421e-07
1.940083735e-07
6.561555737e-08
3.559854566e-09
0
0
0
0
0
0
0
0
0
0
0
0
0
0
0
0
0
0
0
0
0
0
2.487414907e-14
0
0
0
0
0
0
0
0
0
0
1.289485825e-12
0
0
0
0
0
0
1.243346852e-10
1.690749722e-09
6.005620587e-09
1.254149508e-08
2.047760936e-08
3.034616735e-08
4.076055764e-08
5.017341654e-08
6.592232331e-08
9.289362477e-08
1.317113059e-07
2.154822122e-07
3.36263626e-07
4.773277094e-07
5.353300172e-07
5.083269568e-07
4.113531377e-07
2.740965197e-07
1.325456309e-07
2.764954025e-08
0
0
0
0
0
0
0
0
0
0
0
0
0
0
0
0
0
0
0
0
0
0
0
0
0
0
0
0
0
0
0
0
9.699024621e-13