/*--------------------------------*- C++ -*----------------------------------*\
  =========                 |
  \\      /  F ield         | OpenFOAM: The Open Source CFD Toolbox
   \\    /   O peration     | Website:  https://openfoam.org
    \\  /    A nd           | Version:  10
     \\/     M anipulation  |
\*---------------------------------------------------------------------------*/
FoamFile
{
    format      ascii;
    class       surfaceScalarField;
    location    "0.0250188088";
    object      phi;
}
// * * * * * * * * * * * * * * * * * * * * * * * * * * * * * * * * * * * * * //

dimensions      [1 0 -1 0 0 0 0];

internalField   nonuniform List<scalar> 
10159
(
-9.236041766e-09
1.197879407e-06
-3.961273787e-08
3.597000681e-06
-9.172987431e-08
5.996415495e-06
-1.578290043e-07
8.387579269e-06
1.054260392e-05
-8.900756018e-09
1.206868746e-06
-3.349189636e-08
3.621865085e-06
-7.314006578e-08
6.036496471e-06
-1.184907456e-07
8.433576779e-06
1.04249086e-05
-9.80454339e-09
1.216764939e-06
-3.814790336e-08
3.650466632e-06
-8.342369217e-08
6.082218428e-06
-1.308338124e-07
8.481602496e-06
1.029486899e-05
-1.00025628e-08
1.22685817e-06
-4.036513882e-08
3.681091811e-06
-8.83734921e-08
6.130674858e-06
-1.214474796e-07
8.515295591e-06
1.017422222e-05
-1.105764048e-08
1.238007073e-06
-4.336205945e-08
3.713666714e-06
-9.234157468e-08
6.18011017e-06
-1.197759299e-07
8.543362338e-06
1.005526121e-05
-1.125257148e-08
1.249344796e-06
-4.412284594e-08
3.746792652e-06
-9.237837978e-08
6.228791642e-06
-1.147465063e-07
8.566325615e-06
9.941278404e-06
-1.1121658e-08
1.26055279e-06
-4.348895429e-08
3.779413726e-06
-9.191439818e-08
6.277648703e-06
-1.095276464e-07
8.584531236e-06
9.832524953e-06
-1.116692887e-08
1.271804217e-06
-4.317708072e-08
3.811685479e-06
-8.671355783e-08
6.321615293e-06
-1.022086946e-07
8.60062319e-06
9.731085344e-06
-1.072630469e-08
1.282586993e-06
-4.177200734e-08
3.842903601e-06
-8.447880319e-08
6.364626121e-06
-9.643410055e-08
8.612978816e-06
9.635166159e-06
-9.656028161e-09
1.292290905e-06
-3.843472466e-08
3.871827048e-06
-8.942069555e-08
6.415848621e-06
-9.28126952e-08
8.616711066e-06
9.542789626e-06
-9.785821688e-09
1.302132228e-06
-3.813916665e-08
3.900347586e-06
-8.059017799e-08
6.458558381e-06
-8.243887861e-08
8.618944334e-06
9.460853729e-06
-1.017306753e-08
1.312346499e-06
-3.903110501e-08
3.929329819e-06
-6.842220799e-08
6.488152295e-06
-7.048654792e-08
8.621300267e-06
9.390747624e-06
-9.93166147e-09
1.32230769e-06
-3.777840711e-08
3.957271002e-06
-6.486001271e-08
6.515393365e-06
-6.293520499e-08
8.619594026e-06
9.328088378e-06
-9.367602675e-09
1.331699926e-06
-3.563818335e-08
3.983617104e-06
-6.264578952e-08
6.542533132e-06
-5.733159038e-08
8.614454132e-06
9.270982169e-06
-9.017878114e-09
1.340741675e-06
-3.383266808e-08
4.008503126e-06
-5.992637993e-08
6.568745768e-06
-5.020621047e-08
8.604901052e-06
9.220994808e-06
-8.629529082e-09
1.349394391e-06
-3.223299237e-08
4.032178452e-06
-5.740254498e-08
6.594027502e-06
-4.373847925e-08
8.591408203e-06
9.177470611e-06
-8.331824297e-09
1.357749594e-06
-3.046734501e-08
4.054383203e-06
-5.200370086e-08
6.615676775e-06
-3.709803909e-08
8.576663728e-06
9.1405806e-06
-8.273787966e-09
1.366048455e-06
-3.167701128e-08
4.077865545e-06
-5.339003856e-08
6.637524108e-06
-3.589311549e-08
8.559340603e-06
9.104926905e-06
-1.072301574e-08
1.376801866e-06
-4.185857898e-08
4.109090283e-06
-8.728832598e-08
6.683052141e-06
-6.720072294e-08
8.53953007e-06
9.037922498e-06
-6.562596863e-08
1.442434154e-06
-2.660486425e-07
4.309580872e-06
-5.266586826e-07
6.943715047e-06
-7.441301686e-07
8.757093523e-06
8.293999843e-06
9.632098312e-08
7.152189801e-07
-2.976615391e-08
1.132303872e-06
-1.531045858e-07
1.324497879e-06
-3.027652275e-07
1.544876657e-06
1.286871445e-06
3.253901275e-08
6.827078255e-07
-3.085999516e-08
1.195478335e-06
-1.094353472e-07
1.402787723e-06
-1.483170642e-07
1.583262168e-06
1.13837124e-06
2.560666075e-08
6.56902826e-07
-1.115660048e-08
1.232137062e-06
-9.034943585e-08
1.481697138e-06
-1.024643603e-07
1.595327598e-06
1.035882435e-06
2.095623328e-08
6.358984298e-07
-1.386767517e-09
1.254478772e-06
-6.268470873e-08
1.54302496e-06
-7.535212028e-08
1.607759188e-06
9.60463661e-07
1.711730083e-08
6.186532602e-07
2.418926089e-09
1.269024883e-06
-3.992366852e-08
1.585307e-06
-4.502534764e-08
1.612755492e-06
9.151964036e-07
1.494615477e-08
6.036368255e-07
4.253187892e-09
1.279586374e-06
-2.67161582e-08
1.616140374e-06
-2.799611685e-08
1.61397972e-06
8.871625798e-07
1.22714112e-08
5.913431999e-07
5.883494678e-09
1.2859287e-06
-1.651655772e-08
1.638733233e-06
-1.431141467e-08
1.611771075e-06
8.728073136e-07
8.24370101e-09
5.830964978e-07
3.192120729e-09
1.290926024e-06
-7.924563174e-09
1.64977751e-06
-4.541985502e-09
1.608341044e-06
8.680247866e-07
4.952501584e-09
5.780569333e-07
1.515733457e-09
1.294313342e-06
-4.313684208e-09
1.65552091e-06
4.772478045e-10
1.603350927e-06
8.68295938e-07
2.904030879e-09
5.750261461e-07
2.787771185e-10
1.296765902e-06
-2.694385835e-09
1.6582879e-06
2.516004872e-09
1.59795663e-06
8.705451749e-07
1.142181926e-09
5.737591267e-07
-8.366727936e-10
1.298647795e-06
-1.685255502e-09
1.659041046e-06
3.449326403e-09
1.592738433e-06
8.737916633e-07
2.401012894e-10
5.734137651e-07
-1.125758218e-09
1.299988361e-06
-4.416534735e-10
1.658269883e-06
4.051118476e-09
1.588082598e-06
8.77697466e-07
-4.123241282e-10
5.737717292e-07
-1.522088121e-09
1.300997871e-06
1.119850732e-10
1.656496338e-06
3.978686714e-09
1.584078464e-06
8.815055054e-07
-1.445948117e-09
5.751333178e-07
-2.076850629e-09
1.301820701e-06
4.363352338e-10
1.653749408e-06
4.269535567e-09
1.579905256e-06
8.857351871e-07
-1.510434049e-09
5.77031673e-07
-4.469818783e-09
1.304124369e-06
-1.907667018e-09
1.651691916e-06
3.10359625e-09
1.574557864e-06
8.886368014e-07
-2.389116877e-09
5.800265049e-07
-1.807558091e-09
1.302771268e-06
3.94885395e-09
1.646339859e-06
5.228723709e-09
1.573434079e-06
8.932171798e-07
-1.072765605e-08
5.91104784e-07
-1.524105026e-08
1.306641802e-06
-1.194569686e-08
1.642821969e-06
-3.355557031e-09
1.565489692e-06
8.893461669e-07
-3.6152507e-08
6.271657208e-07
-4.045481891e-08
1.310769934e-06
-2.806623743e-08
1.630606861e-06
-1.161110341e-08
1.549307814e-06
8.774228285e-07
-9.984511428e-08
7.273096794e-07
-1.004489611e-07
1.311666304e-06
-7.505782557e-08
1.604854152e-06
-4.073392294e-08
1.513823924e-06
8.375563522e-07
-7.771584861e-07
1.502001699e-06
-7.32590874e-07
1.270850828e-06
-4.522478075e-07
1.326046753e-06
-1.73594014e-07
1.229448214e-06
6.665964178e-07
8.272412836e-09
1.434483793e-06
5.489279146e-08
4.262649067e-06
1.86119262e-07
6.812685697e-06
6.732418474e-07
8.270593663e-06
6.384149773e-06
2.578162956e-06
9.913356717e-10
1.433150713e-06
1.296445467e-08
4.251758596e-06
8.891325668e-08
6.736046757e-06
5.204697845e-07
7.838182145e-06
5.809984297e-06
1.098345776e-06
1.878921107e-09
1.431383901e-06
1.789121647e-08
4.235731003e-06
1.366378806e-07
6.617783592e-06
6.31684585e-07
7.344233192e-06
5.465977062e-06
9.79142078e-07
3.499839737e-09
1.428250013e-06
2.949960544e-08
4.209192456e-06
2.04435147e-07
6.443566717e-06
7.267281943e-07
6.82318766e-06
5.232802852e-06
9.639680081e-07
4.537672308e-09
1.423665759e-06
4.415512907e-08
4.169240042e-06
2.807998776e-07
6.207116494e-06
7.769601387e-07
6.32753591e-06
5.056125738e-06
9.553328019e-07
7.160954251e-09
1.416688204e-06
6.737438976e-08
4.108514775e-06
3.602124207e-07
5.913763897e-06
7.994949014e-07
5.889489033e-06
4.896954884e-06
9.593454577e-07
1.05670446e-08
1.405944993e-06
9.908724688e-08
4.020622961e-06
4.295044112e-07
5.582705286e-06
8.091728253e-07
5.510598348e-06
4.74441124e-06
9.615594912e-07
1.593410761e-08
1.389978469e-06
1.370915042e-07
3.899740865e-06
4.855601727e-07
5.235769407e-06
8.119372105e-07
5.184432818e-06
4.601616689e-06
9.543226651e-07
2.459197755e-08
1.36545053e-06
1.84397825e-07
3.740133256e-06
5.346885575e-07
4.886063141e-06
8.238311803e-07
4.896215888e-06
4.465735664e-06
9.603263583e-07
3.719657888e-08
1.328530016e-06
2.361257267e-07
3.541197333e-06
5.755545976e-07
4.545945868e-06
8.377570721e-07
4.633452407e-06
4.331709623e-06
9.707136244e-07
5.422737378e-08
1.273797265e-06
2.856978144e-07
3.308741045e-06
6.051367719e-07
4.225601837e-06
8.468874037e-07
4.390079407e-06
4.198818089e-06
9.77147686e-07
7.975057953e-08
1.193043261e-06
3.323117049e-07
3.05384724e-06
6.276627702e-07
3.927215775e-06
8.536886004e-07
4.161488794e-06
4.065666773e-06
9.84843251e-07
9.883688908e-08
1.093595905e-06
3.534756868e-07
2.797806151e-06
6.266938597e-07
3.652086478e-06
8.388229973e-07
3.947586429e-06
3.933012508e-06
9.702847579e-07
1.112682122e-07
9.822080822e-07
3.64243543e-07
2.544260169e-06
6.255564573e-07
3.390719876e-06
8.325878364e-07
3.741104711e-06
3.797655291e-06
9.684476728e-07
1.143005154e-07
8.6793466e-07
3.624465079e-07
2.296578824e-06
6.155547927e-07
3.137998358e-06
8.203263459e-07
3.53691341e-06
3.655974911e-06
9.627550311e-07
1.069149756e-07
7.61612567e-07
3.451524598e-07
2.059482646e-06
5.966860246e-07
2.887355081e-06
8.086344615e-07
3.325402916e-06
3.499139813e-06
9.650771315e-07
9.855536848e-08
6.63255458e-07
3.284766556e-07
1.830037789e-06
5.840431481e-07
2.632472662e-06
8.104068211e-07
3.099884645e-06
3.321465032e-06
9.894742729e-07
8.716046916e-08
5.764881387e-07
3.001235004e-07
1.618308938e-06
5.495044163e-07
2.38495664e-06
7.811197835e-07
2.870105486e-06
3.130530345e-06
9.735893494e-07
7.180286548e-08
5.054366219e-07
2.548026575e-07
1.437044822e-06
4.806239254e-07
2.161124923e-06
6.977814766e-07
2.654756722e-06
2.95049268e-06
8.793202584e-07
5.85895158e-08
4.476746284e-07
2.109390754e-07
1.286901209e-06
4.037579927e-07
1.972312163e-06
5.890372704e-07
2.476299858e-06
2.815344627e-06
7.353308302e-07
5.484147237e-08
3.934604957e-07
1.977480783e-07
1.146589463e-06
3.788321634e-07
1.798043279e-06
5.502613378e-07
2.319293918e-06
2.713965364e-06
6.778426372e-07
4.926971275e-08
3.462052512e-07
1.785356763e-07
1.02443807e-06
3.457116745e-07
1.64583034e-06
5.076604629e-07
2.184164789e-06
2.631874543e-06
6.323473856e-07
3.753110959e-08
3.129946806e-07
1.40203518e-07
9.352900644e-07
2.821565808e-07
1.528724509e-06
4.321058802e-07
2.073281051e-06
2.558012529e-06
5.625576831e-07
2.722655875e-08
2.920131836e-07
1.044072839e-07
8.771851106e-07
2.182453018e-07
1.448121701e-06
3.501796976e-07
1.990704523e-06
2.495225141e-06
4.814959274e-07
1.975439395e-08
2.798628082e-07
7.745946664e-08
8.424428259e-07
1.665548934e-07
1.398200871e-06
2.763085411e-07
1.937503945e-06
2.452844263e-06
3.931412044e-07
1.441111095e-08
2.735824534e-07
5.769347421e-08
8.236700033e-07
1.268067777e-07
1.370264814e-06
2.163337353e-07
1.906550512e-06
2.42655857e-06
3.189339321e-07
1.134010139e-08
2.703154328e-07
4.58413469e-08
8.133524076e-07
1.026111793e-07
1.354014074e-06
1.791366791e-07
1.88712628e-06
2.407877719e-06
2.708106996e-07
9.560228132e-09
2.682304646e-07
3.91181167e-08
8.064323191e-07
8.811188521e-08
1.342509053e-06
1.554748883e-07
1.872241374e-06
2.391545663e-06
2.391157857e-07
8.941366813e-09
2.659186497e-07
3.645699834e-08
7.989550551e-07
8.226964377e-08
1.329768762e-06
1.458481e-07
1.854722906e-06
2.370230764e-06
2.260257209e-07
9.051912801e-09
2.625342966e-07
3.651745108e-08
7.883475097e-07
8.241880416e-08
1.311832872e-06
1.462846738e-07
1.829695369e-06
2.33871974e-06
2.267968895e-07
9.398157793e-09
2.57707291e-07
3.795188269e-08
7.735753291e-07
8.539737124e-08
1.287051229e-06
1.514824113e-07
1.795145269e-06
2.294940629e-06
2.347513536e-07
9.681053851e-09
2.516360554e-07
3.893228069e-08
7.551140501e-07
8.763473805e-08
1.256234321e-06
1.551091989e-07
1.752262278e-06
2.240572898e-06
2.412523739e-07
9.552439443e-09
2.447972346e-07
3.852868161e-08
7.344225995e-07
8.668788003e-08
1.221734178e-06
1.533766838e-07
1.704284374e-06
2.179729102e-06
2.384756545e-07
9.109468695e-09
2.377322987e-07
3.662531534e-08
7.130481732e-07
8.225576007e-08
1.186133981e-06
1.457105207e-07
1.654796699e-06
2.116942462e-06
2.266378825e-07
8.41319593e-09
2.307839102e-07
3.37532506e-08
6.92098216e-07
7.589031332e-08
1.151255253e-06
1.344465147e-07
1.60630919e-06
2.055394793e-06
2.086909539e-07
7.617249135e-09
2.241616251e-07
3.065335386e-08
6.721245841e-07
6.898828309e-08
1.118029829e-06
1.220093058e-07
1.560132154e-06
1.996755475e-06
1.897460976e-07
6.958091444e-09
2.178922147e-07
2.782244924e-08
6.532754538e-07
6.253631338e-08
1.086695575e-06
1.10730227e-07
1.516594403e-06
1.941461039e-06
1.720432394e-07
6.351591554e-09
2.119822316e-07
2.540949792e-08
6.355019725e-07
5.715312493e-08
1.057168304e-06
1.010966299e-07
1.475582169e-06
1.889372695e-06
1.573268945e-07
5.830226885e-09
2.0637824e-07
2.350472494e-08
6.186971645e-07
5.278836065e-08
1.029277436e-06
9.332796366e-08
1.43685448e-06
1.840184867e-06
1.446982464e-07
5.505837923e-09
2.010657298e-07
2.191938179e-08
6.027581033e-07
4.912444709e-08
1.002837995e-06
8.711166769e-08
1.400150177e-06
1.793555121e-06
1.350414826e-07
5.165147998e-09
1.960089251e-07
2.059778052e-08
5.876187958e-07
4.622268376e-08
9.777327406e-07
8.180800273e-08
1.365296096e-06
1.749263632e-06
1.270361927e-07
4.862201317e-09
1.912017181e-07
1.946726466e-08
5.732139136e-07
4.370889382e-08
9.538484717e-07
7.727662445e-08
1.332131749e-06
1.707102913e-06
1.202509249e-07
4.64923869e-09
1.866151303e-07
1.848213577e-08
5.59494324e-07
4.146099569e-08
9.311008853e-07
7.334543123e-08
1.300538111e-06
1.666921347e-06
1.142017415e-07
4.403996763e-09
1.822467836e-07
1.758375289e-08
5.464115207e-07
3.945469084e-08
9.094070777e-07
6.979285151e-08
1.270400501e-06
1.628573e-06
1.087317024e-07
4.21699114e-09
1.780702298e-07
1.677174689e-08
5.339220746e-07
3.761083068e-08
8.886934722e-07
6.659335476e-08
1.241612616e-06
1.591921115e-06
1.035475824e-07
4.007109455e-09
1.740834157e-07
1.601829595e-08
5.219830922e-07
3.593739672e-08
8.688900884e-07
6.361899582e-08
1.214083474e-06
1.556858459e-06
9.879794803e-08
3.841620159e-09
1.702660655e-07
1.532024201e-08
5.105612056e-07
3.436983155e-08
8.499365053e-07
6.086113236e-08
1.18772464e-06
1.523271152e-06
9.459530983e-08
3.680408052e-09
1.666098757e-07
1.467740786e-08
4.996126969e-07
3.2921715e-08
8.317709118e-07
5.830475115e-08
1.162457223e-06
1.491060734e-06
9.08045387e-08
3.533276558e-09
1.6310064e-07
1.407386976e-08
4.891130688e-07
3.157933688e-08
8.143427329e-07
5.591833745e-08
1.138206739e-06
1.460136169e-06
8.720695033e-08
3.388774668e-09
1.597313677e-07
1.352107093e-08
4.790222007e-07
3.033323777e-08
7.975943637e-07
5.37651915e-08
1.114898422e-06
1.430401484e-06
8.367911693e-08
3.253601535e-09
1.56489414e-07
1.300542187e-08
4.693204607e-07
2.918838137e-08
7.814854793e-07
5.169655303e-08
1.092472843e-06
1.401785354e-06
8.048408824e-08
3.12608655e-09
1.53372252e-07
1.250774965e-08
4.599832028e-07
2.809716278e-08
7.659827318e-07
4.978049022e-08
1.070886869e-06
1.374231037e-06
7.725747746e-08
3.031650575e-09
1.503711875e-07
1.20455006e-08
4.509994769e-07
2.700746664e-08
7.510610787e-07
4.793910421e-08
1.050104796e-06
1.347695132e-06
7.443686667e-08
2.899593299e-09
1.474811829e-07
1.160236947e-08
4.423411397e-07
2.604730684e-08
7.366808214e-07
4.61592977e-08
1.030073275e-06
1.322110759e-06
7.201435399e-08
2.810048057e-09
1.44692746e-07
1.117786249e-08
4.339919602e-07
2.51379239e-08
7.228091434e-07
4.452327949e-08
1.010744861e-06
1.297418534e-06
6.93460087e-08
2.712016329e-09
1.420035254e-07
1.078789009e-08
4.259332342e-07
2.423824608e-08
7.09420672e-07
4.297888175e-08
9.920875211e-07
1.273576697e-06
6.695241796e-08
2.60521784e-09
1.394035176e-07
1.042680891e-08
4.18146472e-07
2.341624782e-08
6.964793317e-07
4.156187567e-08
9.7404851e-07
1.250519722e-06
6.447610362e-08
2.514215078e-09
1.368945087e-07
1.006297472e-08
4.106266923e-07
2.260358905e-08
6.839825916e-07
4.011062893e-08
9.566270431e-07
1.228245718e-06
6.22502468e-08
2.435097022e-09
1.344636097e-07
9.739824112e-09
4.033449705e-07
2.188846978e-08
6.718771334e-07
3.88303215e-08
9.397465009e-07
1.206658689e-06
6.029184109e-08
2.351824899e-09
1.321200893e-07
9.390082094e-09
3.963204908e-07
2.109720796e-08
6.602005146e-07
3.743642746e-08
9.234623136e-07
1.185828254e-06
5.818377469e-08
2.28350034e-09
1.298410216e-07
9.122826706e-09
3.894931476e-07
2.049916143e-08
6.488477438e-07
3.639321714e-08
9.076258448e-07
1.165566391e-06
5.655025675e-08
2.188760719e-09
1.276515171e-07
8.760716366e-09
3.829297967e-07
1.970545844e-08
6.379352079e-07
3.497767721e-08
8.924019362e-07
1.146083292e-06
5.434150278e-08
2.141093768e-09
1.255110235e-07
8.564111258e-09
3.765173137e-07
1.925665953e-08
6.272700094e-07
3.418256583e-08
8.775194558e-07
1.127032952e-06
5.299358411e-08
2.041302924e-09
1.234754385e-07
8.150959315e-09
3.704134803e-07
1.831524746e-08
6.171186223e-07
3.253883472e-08
8.633528653e-07
1.108896657e-06
5.049418027e-08
2.025821796e-09
1.214498777e-07
8.111329817e-09
3.643454619e-07
1.820834393e-08
6.070245981e-07
3.233696942e-08
8.492636928e-07
1.090853862e-06
5.036797835e-08
1.902429072e-09
1.195535168e-07
7.59524373e-09
3.586558581e-07
1.707744799e-08
5.975598132e-07
3.030907959e-08
8.360530542e-07
1.073941831e-06
4.722816312e-08
1.975501565e-09
1.175796709e-07
7.897118912e-09
3.5274327e-07
1.775580137e-08
5.877204285e-07
3.1511171e-08
8.223106965e-07
1.056325606e-06
4.91237246e-08
1.776717646e-09
1.158069527e-07
7.115141766e-09
3.474100654e-07
1.602395675e-08
5.7883013e-07
2.847473487e-08
8.098758673e-07
1.040377531e-06
4.444756434e-08
2.147408662e-09
1.136613891e-07
8.562756316e-09
3.410025286e-07
1.923730305e-08
5.681782121e-07
3.411285645e-08
7.950111886e-07
1.021309389e-06
5.321530111e-08
1.577575475e-09
6.35766116e-09
1.432979906e-08
2.54457876e-08
3.962692779e-08
1.376312936e-06
1.208055692e-06
1.414744598e-06
1.05568709e-06
1.442355866e-06
9.491121366e-07
1.460339249e-06
9.435394908e-07
1.469086558e-06
9.471651096e-07
1.466915889e-06
9.611502407e-07
1.457018457e-06
9.713946639e-07
1.443534944e-06
9.67806619e-07
1.427230642e-06
9.768582701e-07
1.407302011e-06
9.902706455e-07
1.384451222e-06
9.991608332e-07
1.358442935e-06
1.010341822e-06
1.329977335e-06
9.97589588e-07
1.298818432e-06
9.993963343e-07
1.263651391e-06
9.977836938e-07
1.222015272e-06
1.007727286e-06
1.171926014e-06
1.039579792e-06
1.114967007e-06
1.030940376e-06
1.062672584e-06
9.313815379e-07
1.030648743e-06
7.729402154e-07
1.013997557e-06
7.069554262e-07
1.001779293e-06
6.638976346e-07
9.890021803e-07
6.000846311e-07
9.754451147e-07
5.231674052e-07
9.658879349e-07
4.343213414e-07
9.594482636e-07
3.564542202e-07
9.540522036e-07
3.063503736e-07
9.48600532e-07
2.710821881e-07
9.406742867e-07
2.569479123e-07
9.284969084e-07
2.586864845e-07
9.113834607e-07
2.67992691e-07
8.900543402e-07
2.741237696e-07
8.661388869e-07
2.712551797e-07
8.414215872e-07
2.576651902e-07
8.171682223e-07
2.380231369e-07
7.940346372e-07
2.161310094e-07
7.722097982e-07
1.960830126e-07
7.516392812e-07
1.789876042e-07
7.322114648e-07
1.654705238e-07
7.137873069e-07
1.54215776e-07
6.962803362e-07
1.448328329e-07
6.796092919e-07
1.368359766e-07
6.63714932e-07
1.298756826e-07
6.485382743e-07
1.236098024e-07
6.340264325e-07
1.180561908e-07
6.201396142e-07
1.129061621e-07
6.068316836e-07
1.080361989e-07
5.94064186e-07
1.034462061e-07
5.818024119e-07
9.921425547e-08
5.700094664e-07
9.544133794e-08
5.586570367e-07
9.184245271e-08
5.477231483e-07
8.856100146e-08
5.371914585e-07
8.52305239e-08
5.270335588e-07
8.199372831e-08
5.172294374e-07
7.919408318e-08
5.077592422e-07
7.640831399e-08
4.986006608e-07
7.399690785e-08
4.897494919e-07
7.143529355e-08
4.811707532e-07
6.9175397e-08
4.728893873e-07
6.667632245e-08
4.648336793e-07
6.482640425e-08
4.570852746e-07
6.231635214e-08
4.495082338e-07
6.098654184e-08
4.422947438e-07
5.801359521e-08
4.35113923e-07
5.760407845e-08
4.283898204e-07
5.399165862e-08
4.213692107e-07
5.620336611e-08
4.150272287e-07
5.079937193e-08
4.073925279e-07
6.085638924e-08
4.518023482e-08
-4.570921481e-07
3.157031171e-06
-7.435219931e-07
1.567418721e-06
-6.180927415e-07
1.194727369e-06
-4.021130503e-07
1.020614881e-06
6.104701395e-07
-3.610817236e-07
4.368563723e-07
3.775685468e-06
-1.0225695e-07
2.110791074e-06
-2.203027559e-07
1.304058229e-06
-1.98952745e-07
1.008186792e-06
7.182199896e-07
-3.083219984e-07
5.426437373e-07
4.180487168e-06
6.720764041e-08
2.590346612e-06
-1.682638619e-07
1.531977826e-06
-2.988574642e-07
1.155161665e-06
8.882397356e-07
-4.760473709e-07
6.393063238e-07
4.484824002e-06
2.75833682e-07
2.953516429e-06
-1.167149648e-08
1.821328864e-06
-2.239264056e-07
1.368898018e-06
1.128219618e-06
-4.711639177e-07
7.129920321e-07
4.720515341e-06
3.998343165e-07
3.266647697e-06
7.288982344e-08
2.151285717e-06
-1.400618133e-07
1.576233699e-06
1.342783255e-06
-3.558067529e-07
7.864500034e-07
4.893748737e-06
5.154489753e-07
3.53785729e-06
2.080098487e-07
2.460851952e-06
4.006976982e-09
1.78023333e-06
1.532090437e-06
-1.832392949e-07
8.437946528e-07
5.020457116e-06
6.035052137e-07
3.775744153e-06
3.190821636e-07
2.74336913e-06
1.129891429e-07
1.985633527e-06
1.712400222e-06
-6.164558038e-08
8.735547947e-07
5.114746177e-06
6.627330994e-07
3.984769157e-06
4.010908514e-07
3.005450991e-06
1.753112656e-07
2.209920842e-06
1.887965793e-06
-2.743990869e-10
9.094953545e-07
5.182325604e-06
7.285453104e-07
4.167122999e-06
4.881657547e-07
3.245768722e-06
2.423275853e-07
2.453860457e-06
2.060607242e-06
6.970909086e-08
9.489786876e-07
5.222490231e-06
7.977228515e-07
4.320136006e-06
5.829319635e-07
3.459319049e-06
3.547399864e-07
2.686072585e-06
2.230500689e-06
1.82758962e-07
9.80353497e-07
5.239362134e-06
8.537862845e-07
4.445006839e-06
6.65348656e-07
3.647063329e-06
4.528619474e-07
2.901742182e-06
2.393119409e-06
2.893460318e-07
1.014571349e-06
5.232985888e-06
9.12152085e-07
4.543025159e-06
7.452203599e-07
3.81286087e-06
5.395927699e-07
3.105834568e-06
2.559982924e-06
3.700715862e-07
1.021676545e-06
5.20624295e-06
9.463986319e-07
4.615302636e-06
8.044733442e-07
3.953715303e-06
6.165191257e-07
3.290342797e-06
2.733748772e-06
4.401187005e-07
1.043149071e-06
5.160562548e-06
9.909778651e-07
4.665304041e-06
8.73763898e-07
4.071190546e-06
7.120272544e-07
3.450672772e-06
2.899310882e-06
5.441299864e-07
1.068271334e-06
5.090385534e-06
1.049318618e-06
4.685239354e-06
9.626572063e-07
4.159070251e-06
8.302168815e-07
3.583454014e-06
3.04449917e-06
6.853232252e-07
1.108200751e-06
4.990584798e-06
1.126911281e-06
4.668865391e-06
1.082646932e-06
4.204943235e-06
9.967295067e-07
3.671393733e-06
3.146017925e-06
8.98472067e-07
1.181816841e-06
4.851022805e-06
1.245560015e-06
4.608537425e-06
1.254772258e-06
4.198699883e-06
1.226719676e-06
3.700146955e-06
3.187931208e-06
1.184258889e-06
1.205375801e-06
4.677247723e-06
1.306251961e-06
4.505711241e-06
1.354048807e-06
4.144371814e-06
1.370822427e-06
3.672145082e-06
3.175361398e-06
1.371819528e-06
1.083366179e-06
4.52569327e-06
1.142374611e-06
4.444458295e-06
1.12240638e-06
4.159425142e-06
1.067271184e-06
3.720392403e-06
3.187843224e-06
1.049793011e-06
8.53291291e-07
4.480283298e-06
8.139390092e-07
4.553935419e-06
6.888867075e-07
4.43350268e-06
5.359779768e-07
4.159262421e-06
3.775258672e-06
1.913844479e-07
7.348335321e-07
4.528252725e-06
6.04579976e-07
4.81455705e-06
3.254848386e-07
4.937253489e-06
-9.018296522e-08
4.95926773e-06
4.949968311e-06
-6.819776745e-07
6.956236461e-07
4.606484708e-06
5.755823582e-07
5.104885027e-06
3.090317809e-07
5.46051227e-06
-8.693832187e-08
5.736534236e-06
5.993349931e-06
-5.871396889e-07
6.835727311e-07
4.656809689e-06
6.424457289e-07
5.3408658e-06
4.71525588e-07
5.902035213e-06
1.829452616e-07
6.387405317e-06
6.83633551e-06
-1.95362077e-07
6.58026567e-07
4.672529285e-06
7.064862835e-07
5.498049715e-06
6.565871101e-07
6.220664118e-06
5.149225561e-07
6.864861175e-06
7.450832968e-06
3.005341127e-07
5.860588968e-07
4.67781481e-06
6.937336543e-07
5.59662569e-06
7.434944922e-07
6.427895377e-06
7.334669026e-07
7.18103071e-06
7.86193028e-06
6.704523728e-07
5.163376572e-07
4.673218067e-06
6.653909785e-07
5.644750473e-06
7.894128125e-07
6.541344794e-06
8.816353564e-07
7.36235381e-06
8.104863957e-06
9.405472698e-07
4.65871062e-07
4.659812697e-06
6.356708944e-07
5.657024847e-06
8.03690616e-07
6.587664924e-06
9.619218145e-07
7.44600543e-06
8.224974058e-06
1.103929978e-06
4.239701079e-07
4.638981031e-06
5.963310932e-07
5.646251458e-06
7.797765935e-07
6.591923789e-06
9.661700971e-07
7.468098661e-06
8.26635364e-06
1.148152403e-06
4.073335562e-07
4.602843165e-06
5.822404534e-07
5.609823057e-06
7.748491853e-07
6.558325e-06
9.78179424e-07
7.439835024e-06
8.245858545e-06
1.184402918e-06
4.117520011e-07
4.544834599e-06
5.923041749e-07
5.543935623e-06
7.942683725e-07
6.487094473e-06
1.011189405e-06
7.365886712e-06
8.172302991e-06
1.235607232e-06
4.267945913e-07
4.462590894e-06
6.149014081e-07
5.447914777e-06
8.265840579e-07
6.380065335e-06
1.055381246e-06
7.251014231e-06
8.053424757e-06
1.29433121e-06
4.373776187e-07
4.359752629e-06
6.305727561e-07
5.326772657e-06
8.484535892e-07
6.243920897e-06
1.084855256e-06
7.103678097e-06
7.899364507e-06
1.332724955e-06
4.328872248e-07
4.244186022e-06
6.247128104e-07
5.18999144e-06
8.414961455e-07
6.089623755e-06
1.077328946e-06
6.936107508e-06
7.72333265e-06
1.325322531e-06
4.117262109e-07
4.124537546e-06
5.947668889e-07
5.047862391e-06
8.023734118e-07
5.928820401e-06
1.02847049e-06
6.760960393e-06
7.538685574e-06
1.267310219e-06
3.802228595e-07
4.006932982e-06
5.500552292e-07
4.907735818e-06
7.42918282e-07
5.769816743e-06
9.538526345e-07
6.587229557e-06
7.354796574e-06
1.177269713e-06
3.456534329e-07
3.894699042e-06
5.004151665e-07
4.773680235e-06
6.768071926e-07
5.617269716e-06
8.701573113e-07
6.419973379e-06
7.176996032e-06
1.075959278e-06
3.136256925e-07
3.788742335e-06
4.544672389e-07
4.646866418e-06
6.151685823e-07
5.472589342e-06
7.92158764e-07
6.260836698e-06
7.007119905e-06
9.809875557e-07
2.865294096e-07
3.688851292e-06
4.153709886e-07
4.52712754e-06
5.627978594e-07
5.335675066e-06
7.254604973e-07
6.109783654e-06
6.845252224e-06
8.998677646e-07
2.64401964e-07
3.594467179e-06
3.83410019e-07
4.41383472e-06
5.1994662e-07
5.205864489e-06
6.708738897e-07
5.966169456e-06
6.69081884e-06
8.333664622e-07
2.466000539e-07
3.50493061e-06
3.577661655e-07
4.306226779e-06
4.85443807e-07
5.082339589e-06
6.270789475e-07
5.829173427e-06
6.543045039e-06
7.798470813e-07
2.317710307e-07
3.419815613e-06
3.364647391e-07
4.203807187e-06
4.56745787e-07
4.964562141e-06
5.906599428e-07
5.698261333e-06
6.401442816e-06
7.353824723e-07
2.19220249e-07
3.338719574e-06
3.183817197e-07
4.106100299e-06
4.325806473e-07
4.852014388e-06
5.598862858e-07
5.572892657e-06
6.265484934e-06
6.979127395e-07
2.081874552e-07
3.261368303e-06
3.024627703e-07
4.012793115e-06
4.113265729e-07
4.744360137e-06
5.327689931e-07
5.452729732e-06
6.134856075e-06
6.649092408e-07
1.98263036e-07
3.187484258e-06
2.882279805e-07
3.923557317e-06
3.922209398e-07
4.641232121e-06
5.085617927e-07
5.337391349e-06
6.009174406e-06
6.353459226e-07
1.892554605e-07
3.116799845e-06
2.753049024e-07
3.83808605e-06
3.749305252e-07
4.542301632e-06
4.865802046e-07
5.226536944e-06
5.888107705e-06
6.085260238e-07
1.809304252e-07
3.049118529e-06
2.633368818e-07
3.75614949e-06
3.589371003e-07
4.447325591e-06
4.66148599e-07
5.119926194e-06
5.771434745e-06
5.836188437e-07
1.73254384e-07
2.984225985e-06
2.522971773e-07
3.677498384e-06
3.441555108e-07
4.356027717e-06
4.473387191e-07
5.01726823e-06
5.65885856e-06
5.60602786e-07
1.661162972e-07
2.921943663e-06
2.42041441e-07
3.601933597e-06
3.303549201e-07
4.268196081e-06
4.297517361e-07
4.918350732e-06
5.550180274e-06
5.390449293e-07
1.594753675e-07
2.862096403e-06
2.324882364e-07
3.529248855e-06
3.175057704e-07
4.183606955e-06
4.133777348e-07
4.822941307e-06
5.445169396e-06
5.189245781e-07
1.53325568e-07
2.804511629e-06
2.236602607e-07
3.459249432e-06
3.055822242e-07
4.102048646e-06
3.981821279e-07
4.730823049e-06
5.34361316e-06
5.002067657e-07
1.475870904e-07
2.749050094e-06
2.153615964e-07
3.391770217e-06
2.944547192e-07
4.023342951e-06
3.838859981e-07
4.641810048e-06
5.245330732e-06
4.82657015e-07
1.421173986e-07
2.6956088e-06
2.075027514e-07
3.326693568e-06
2.838620947e-07
3.947358695e-06
3.70306815e-07
4.555766847e-06
5.150187042e-06
4.659307689e-07
1.36893262e-07
2.644104963e-06
1.999558626e-07
3.263923985e-06
2.7369516e-07
3.87399623e-06
3.572421492e-07
4.472593973e-06
5.058090196e-06
4.498289608e-07
1.320065362e-07
2.594418494e-06
1.928911094e-07
3.203324508e-06
2.641190184e-07
3.803104297e-06
3.449818016e-07
4.392134008e-06
4.968880939e-06
4.34626745e-07
1.274029718e-07
2.546431484e-06
1.86237078e-07
3.144753708e-06
2.551495568e-07
3.734525988e-06
3.334238585e-07
4.31421802e-06
4.882386556e-06
4.203470111e-07
1.229978264e-07
2.500074675e-06
1.798550489e-07
3.088135388e-06
2.465092158e-07
3.668179428e-06
3.222890835e-07
4.238764193e-06
4.798530563e-06
4.065376625e-07
1.189008932e-07
2.455213171e-06
1.739703381e-07
3.03330509e-06
2.385249973e-07
3.603876762e-06
3.120251612e-07
4.165566828e-06
4.717092481e-06
3.938058486e-07
1.148170933e-07
2.411859579e-06
1.680351615e-07
2.980288129e-06
2.3047194e-07
3.541656133e-06
3.016204382e-07
4.094679484e-06
4.638147964e-06
3.808534366e-07
1.112342413e-07
2.369813771e-06
1.628519137e-07
2.928835186e-06
2.234658101e-07
3.481225497e-06
2.925834618e-07
4.025770992e-06
4.561328396e-06
3.696477896e-07
1.072921807e-07
2.329232108e-06
1.570978117e-07
2.879151071e-06
2.156414588e-07
3.422836102e-06
2.824483274e-07
3.959141491e-06
4.486987649e-06
3.569755707e-07
1.043227943e-07
2.289733148e-06
1.528264968e-07
2.830762907e-06
2.098492059e-07
3.36593086e-06
2.749798186e-07
3.894153889e-06
4.414411481e-06
3.477148229e-07
1.002805346e-07
2.251742798e-06
1.469592036e-07
2.78420416e-06
2.018185561e-07
3.311147082e-06
2.645596147e-07
3.83155084e-06
4.344449439e-06
3.346513801e-07
9.80484488e-08
2.214577071e-06
1.437086767e-07
2.738629483e-06
1.974688871e-07
3.257486314e-06
2.589345382e-07
3.770183174e-06
4.275807226e-06
3.277031163e-07
9.335269991e-08
2.179176118e-06
1.368632811e-07
2.695199503e-06
1.881092016e-07
3.206326763e-06
2.467434079e-07
3.71164483e-06
4.21028863e-06
3.123763575e-07
9.286268613e-08
2.143956539e-06