/*--------------------------------*- C++ -*----------------------------------*\
  =========                 |
  \\      /  F ield         | OpenFOAM: The Open Source CFD Toolbox
   \\    /   O peration     | Website:  https://openfoam.org
    \\  /    A nd           | Version:  10
     \\/     M anipulation  |
\*---------------------------------------------------------------------------*/
FoamFile
{
    format      ascii;
    class       volScalarField;
    location    "0.02499901733";
    object      C2H2_0;
}
// * * * * * * * * * * * * * * * * * * * * * * * * * * * * * * * * * * * * * //

dimensions      [0 0 0 0 0 0 0];

internalField   nonuniform List<scalar> 
5170
(
0
0
0
0
0
0
0
0
0
0
0
0
0
0
0
0
0
0
0
0
0
0
0
0
0
0
0
0
0
0
0
0
0
0
0
0
0
0
0
0
0
0
0
0
0
0
0
0
0
0
0
0
0
0
0
0
0
0
0
0
0
0
0
0
0
0
0
0
0
0
0
0
0
0
0
0
0
0
0
0
0
0
0
0
0
0
0
0
0
0
0
0
0
1.78178888e-13
8.960793149e-13
3.239517299e-13
2.060333256e-12
1.669451216e-11
1.165992807e-10
5.495985915e-10
1.015869219e-15
1.175806922e-14
4.124041393e-17
4.602491008e-15
8.599998261e-15
1.499802092e-14
1.812518168e-14
1.648110954e-14
1.83322128e-14
1.647606404e-14
9.057009633e-15
1.563277131e-14
9.611898563e-15
9.303600718e-15
6.941585356e-15
3.338705306e-15
5.607760441e-15
2.804844076e-15
2.363843625e-15
1.047397171e-15
0
1.130292152e-15
4.814165272e-16
6.457580541e-18
0
0
0
0
0
0
0
0
0
2.827560701e-11
0
2.885128086e-09
9.903892442e-11
0
3.853600051e-11
1.040553319e-08
1.208718797e-08
1.865726526e-09
0
7.259265241e-09
2.777186943e-10
2.256782637e-09
9.70618924e-09
8.402399682e-09
5.002057754e-09
1.975471938e-10
3.706250234e-11
2.925989198e-09
2.818538056e-09
2.87871268e-10
3.800434816e-10
3.2804314e-10
0
0
1.696471199e-10
1.812873302e-10
1.111118442e-10
1.706074218e-11
1.428886182e-10
2.030017842e-10
4.604746506e-10
3.032764598e-10
1.173971781e-10
1.179566362e-10
2.609181212e-10
4.580975159e-10
4.140103199e-10
2.05727022e-10
1.981776003e-10
3.55363759e-10
4.102031404e-10
3.769072497e-10
3.230796197e-10
3.151270981e-10
3.899795029e-10
3.660654795e-10
2.935999485e-10
3.460847568e-10
3.494750835e-10
3.513121638e-10
3.196129723e-10
2.456691492e-10
3.016703206e-10
3.089087067e-10
2.91709464e-10
2.685824616e-10
5.938454231e-10
4.48771911e-10
3.070406148e-10
2.577844567e-10
2.209192846e-10
3.797975781e-08
2.619787023e-08
4.067359385e-09
9.617444937e-10
6.82464939e-11
1.674535445e-11
1.241965112e-10
1.819585629e-09
2.57290624e-08
3.196933489e-07
7.287828219e-10
5.674461947e-09
8.293169236e-08
1.102318559e-06
1.197130512e-05
4.668855465e-09
3.274402113e-08
3.904212319e-07
3.86398496e-06
2.685817301e-05
1.816251946e-08
1.146805293e-07
1.141677951e-06
8.805923978e-06
4.330494654e-05
5.708395237e-08
3.315523711e-07
2.845284554e-06
1.781811201e-05
7.056624382e-05
1.612665892e-07
8.766193605e-07
6.460471834e-06
3.2966205e-05
0.0001100764566
4.172504097e-07
2.098515416e-06
1.303054376e-05
5.433904959e-05
0.0001540392477
9.93573217e-07
4.537177132e-06
2.33099442e-05
7.959292296e-05
0.0001926269925
2.200146907e-06
8.941164278e-06
3.758564697e-05
0.0001068419752
0.0002271595457
4.572512169e-06
1.622264295e-05
5.611132976e-05
0.0001370341566
0.0002656735387
9.05348272e-06
2.762077749e-05
7.950370173e-05
0.0001720208931
0.0003122421568
1.785893742e-05
4.461504405e-05
0.0001082683809
0.0002125868802
0.0003645708572
3.276982258e-05
6.79774998e-05
0.0001426680343
0.0002576828548
0.0004181536095
5.713784862e-05
9.936374947e-05
0.0001833806535
0.0003070314882
0.0004729235225
9.387907985e-05
0.0001402638737
0.0002311165697
0.0003611718865
0.0005308350754
0.0001430702212
0.000191678951
0.0002870290907
0.0004211893451
0.0005927304157
0.0002080206494
0.0002560517565
0.0003514112341
0.0004846123007
0.0006526640491
0.000282001726
0.0003261684682
0.0004152506084
0.0005390726454
0.0006919739931
0.0003547671889
0.0003928785601
0.0004691319755
0.0005714084649
0.0006900869063
0.0004193307928
0.0004477552592
0.0005028372053
0.0005718556242
0.0006435919017
0.0004616223852
0.0004768240182
0.0005049256461
0.0005370772978
0.000565730371
0.0004561555891
0.0004606230289
0.0004682805007
0.0004752975524
0.0004781517965
0.0004056556223
0.0004053260769
0.0004037114953
0.000399581197
0.0003917614702
0.0003333637864
0.0003315691045
0.0003271921019
0.0003199990278
0.0003098590448
0.0002577025879
0.0002558975159
0.0002517012604
0.0002451976997
0.0002365192812
0.0001894553507
0.0001880370037
0.0001848021234
0.0001798551474
0.0001733668276
0.0001365320936
0.0001355426518
0.0001332602435
0.0001297780111
0.0001252370666
9.638948131e-05
9.572632256e-05
9.419376798e-05
9.185727036e-05
8.881719751e-05
6.709404158e-05
6.666247611e-05
6.566390847e-05
6.414082741e-05
6.215924399e-05
4.615345401e-05
4.587845083e-05
4.524098522e-05
4.426731325e-05
4.29990822e-05
3.130897806e-05
3.113712867e-05
3.073754076e-05
3.012572664e-05
2.932730661e-05
2.083818537e-05
2.073324388e-05
2.048793876e-05
2.01110373e-05
1.961803981e-05
1.352681493e-05
1.346454263e-05
1.331786736e-05
1.309148099e-05
1.279459786e-05
8.521128534e-06
8.485437671e-06
8.400507873e-06
8.268699448e-06
8.095374957e-06
5.191697568e-06
5.172027908e-06
5.124628318e-06
5.050585448e-06
4.952938974e-06
3.053204594e-06
3.042820377e-06
3.01739525e-06
2.977374586e-06
2.924433955e-06
1.730399658e-06
1.725161678e-06
1.712085078e-06
1.691316349e-06
1.663750828e-06
9.433181667e-07
9.408077454e-07
9.343803556e-07
9.24060682e-07
9.103133788e-07
4.934426467e-07
4.923078088e-07
4.893046444e-07
4.844171961e-07
4.778787719e-07
2.469990967e-07
2.465213244e-07
2.451973612e-07
2.430047175e-07
2.400565013e-07
1.179988354e-07
1.178147902e-07
1.172694149e-07
1.163448076e-07
1.15093704e-07
5.367726783e-08
5.361448638e-08
5.340731835e-08
5.304430076e-08
5.254899517e-08
2.320951359e-08
2.319180542e-08
2.312063989e-08
2.29895693e-08
2.28086363e-08
9.527045432e-09
9.523839406e-09
9.502522513e-09
9.459821414e-09
9.399821392e-09
3.709432248e-09
3.709831551e-09
3.704738626e-09
3.692629003e-09
3.675081155e-09
1.369131403e-09
1.369912817e-09
1.36926468e-09
1.366530793e-09
1.362292427e-09
4.786117631e-10
4.791140405e-10
4.793396582e-10
4.790243997e-10
4.78373124e-10
1.584682402e-10
1.58716462e-10
1.589489721e-10
1.59067677e-10
1.591404538e-10
4.960321534e-11
4.970698027e-11
4.983033811e-11
4.993884255e-11
5.005382692e-11
1.459942258e-11
1.463739239e-11
1.468725735e-11
1.474336667e-11
1.480632639e-11
3.8594137e-12
3.870599711e-12
3.888206406e-12
3.908938382e-12
3.934455223e-12
9.720324651e-13
9.762287978e-13
9.829018643e-13
9.911446135e-13
1.001339156e-12
2.221631109e-13
2.233988678e-13
2.254476589e-13
2.280659975e-13
2.313631921e-13
4.359706796e-14
4.401782622e-14
4.47856937e-14
4.580813698e-14
4.697031024e-14
7.18689476e-15
7.243125674e-15
7.333856476e-15
7.446076591e-15
7.586788899e-15
4.529848648e-16
4.635778322e-16
4.79822466e-16
4.937658155e-16
5.091266589e-16
0
0
0
0
0
0
0
0
0
0
0
0
0
0
0
5.28235411e-19
5.094874892e-19
6.492529959e-19
1.002654908e-18
1.585239395e-18
6.959016421e-17
6.964075609e-17
6.978508407e-17
7.003636394e-17
7.037431141e-17
2.333516767e-16
2.338306326e-16
2.348434771e-16
2.361833738e-16
2.375218286e-16
5.631224041e-16
5.614454495e-16
5.57810857e-16
5.520188628e-16
5.43315442e-16
6.68779579e-16
6.61657497e-16
6.515774468e-16
6.420796245e-16
6.323691039e-16
8.030765376e-16
7.98184097e-16
7.893802422e-16
7.784366001e-16
7.655960908e-16
8.099891871e-16
8.087981515e-16
8.107782803e-16
8.21362857e-16
8.437863295e-16
9.524372999e-16
9.485586299e-16
9.403972405e-16
9.284428076e-16
9.127947166e-16
7.792734871e-16
7.760398745e-16
7.690642927e-16
7.587751252e-16
7.455392975e-16
5.488975979e-16
5.483643335e-16
5.471430647e-16
5.452980441e-16
5.429352181e-16
4.732904229e-16
4.738924157e-16
4.751679918e-16
4.765032148e-16
4.761751289e-16
1.104190146e-06
5.135797128e-05
7.706593595e-05
9.800408669e-05
0.000151211877
0.0002192974324
0.0002765387857
0.0003110353487
0.0003411908622
0.0003842859274
0.0004408655489
0.0005007715619
0.000556511991
0.0006110082673
0.0006691366969
0.0007305672
0.000786278792
0.0008104266954
0.0007742810231
0.0006873462928
0.0005794517476
0.0004763874234
0.0003843074984
0.0003018457754
0.000229964376
0.0001685648602
0.0001219350687
8.662701395e-05
6.073978491e-05
4.209469291e-05
2.876104787e-05
1.927127038e-05
1.258829427e-05
7.976893519e-06
4.887576169e-06
2.889912381e-06
1.64635724e-06
9.019963925e-07
4.741368591e-07
2.384929243e-07
1.144994046e-07
5.235113709e-08
2.275596528e-08
9.392370132e-09
3.67796409e-09
1.365586562e-09
4.803535713e-10
1.60082514e-10
5.044116239e-11
1.495034672e-11
3.980875663e-12
1.016843932e-12
2.358934192e-13
4.831218843e-14
7.796028839e-15
5.50268801e-16
0
0
0
1.970580644e-18
7.052670114e-17
2.378612261e-16
5.337302792e-16
6.192700452e-16
7.497181937e-16
8.496842774e-16
8.995477474e-16
7.351468374e-16
5.413610672e-16
4.720125408e-16
2.401966091e-06
2.209033835e-06
1.308697411e-07
1.189434298e-08
7.318628822e-10
0.0001581432018
0.0008187958555
4.706366702e-05
1.406127011e-06
5.756479138e-08
0.0001817824493
0.0004459488854
4.573647494e-05
2.584630037e-06
1.116347784e-07
0.0002044978462
0.0004527175968
0.0008043055473
6.125753738e-05
2.975411886e-06
0.0003194248705
0.0008973305111
0.00243269854
0.0002422461514
1.705661663e-05
0.0004382638821
0.001086687263
0.002248857903
0.0002892833807
2.670538009e-05
0.0005046777492
0.001028264559
0.001629852692
0.0002494162324
2.891903057e-05
0.0005165682317
0.0008774803397
0.001127526887
0.0004269491138
5.606000223e-05
0.0005342796066
0.0008775503414
0.001293539038
0.001878296891
0.0002677698248
0.0005860551251
0.0009930610629
0.001617531472
0.002707438155
0.0004402202355
0.0006597657669
0.001119503637
0.001807044123
0.002860533005
0.0005192493517
0.0007290143764
0.00118527291
0.001785344893
0.002524073813
0.000544049562
0.0007838101477
0.001207431312
0.00171000357
0.002264423016
0.001370244173
0.0008345451256
0.001237066988
0.001714797973
0.00229311832
0.002290179531
0.0008913187872
0.001290444518
0.001778413192
0.002403924693
0.002833274837
0.0009511719816
0.001346851667
0.001833292654
0.002452958515
0.003013218558
0.0009996018291
0.001379323351
0.001844171061
0.002435075624
0.002990070642
0.0009988950859
0.001320636273
0.001701734174
0.002191339009
0.002536423112
0.0009044633693
0.001075897734
0.001185611234
0.001176316786
0.0005249193461
0.0007531416723
0.0008034591618
0.0007802870024
0.0006585255389
0.0004208298864
0.000600688398
0.0005933490768
0.0005416575567
0.0004497271254
0.0003341214996
0.0004754912206
0.0004495230827
0.0004001004079
0.0003346621167
0.0002637601402
0.0003753921871
0.0003471878298
0.0003070486727
0.0002600883647
0.0002118157401
0.0002921726698
0.0002684243647
0.0002378579091
0.0002037933396
0.0001694020531
0.0002221800063
0.0002041715201
0.0001817859232
0.0001572467117
0.0001325099459
0.0001630160287
0.0001503174387
0.0001346571202
0.0001175473631
0.000100272726
0.00011824975
0.0001096148414
9.888079209e-05
8.709567531e-05
7.512964656e-05
8.425704661e-05
7.854922818e-05
7.136317928e-05
6.340655222e-05
5.526124553e-05
5.924599789e-05
5.554270633e-05
5.081217018e-05
4.552033096e-05
4.00501281e-05
4.11703712e-05
3.880363793e-05
3.573057515e-05
3.225269365e-05
2.861899321e-05
2.820424469e-05
2.671762889e-05
2.474887029e-05
2.24912788e-05
2.010565413e-05
1.894914606e-05
1.803663742e-05
1.679786266e-05
1.535606715e-05
1.381450402e-05
1.241203167e-05
1.18684832e-05
1.110742303e-05
1.020676025e-05
9.23213653e-06
7.887219355e-06
7.575016109e-06
7.121112337e-06
6.573968454e-06
5.974577261e-06
4.846173831e-06
4.674117182e-06
4.412468431e-06
4.090651246e-06
3.733619226e-06
2.873394195e-06
2.782755206e-06
2.637367495e-06
2.454578273e-06
2.249121852e-06
1.641464453e-06
1.596008998e-06
1.518278027e-06
1.418182378e-06
1.304143983e-06
9.018098793e-07
8.802444406e-07
8.403460262e-07
7.875954031e-07
7.266477919e-07
4.753819127e-07
4.658012125e-07
4.46203904e-07
4.195187565e-07
3.882300704e-07
2.398213803e-07
2.358999901e-07
2.26727792e-07
2.13812339e-07
1.98429951e-07
1.154903802e-07
1.140521481e-07
1.099810216e-07
1.040216159e-07
9.680288817e-08
5.29737314e-08
5.252746542e-08
5.082215009e-08
4.820930293e-08
4.498517353e-08
2.310369382e-08
2.300549589e-08
2.23346357e-08
2.124919128e-08
1.988207224e-08
9.569041439e-09
9.569733244e-09
9.323162717e-09
8.896877874e-09
8.347544465e-09
3.760595601e-09
3.77764965e-09
3.693490973e-09
3.535509899e-09
3.326640905e-09
1.401420673e-09
1.414216084e-09
1.387782643e-09
1.332658829e-09
1.257636891e-09
4.948543609e-10
5.017685854e-10
4.943116727e-10
4.762511404e-10
4.50786603e-10
1.655646182e-10
1.686873418e-10
1.668083132e-10
1.612395113e-10
1.530727607e-10
5.238005792e-11
5.362698077e-11
5.322790552e-11
5.16224078e-11
4.915449243e-11
1.559322686e-11
1.604777616e-11
1.59930295e-11
1.556208541e-11
1.486354339e-11
4.173094641e-12
4.32278935e-12
4.33019923e-12
4.231107766e-12
4.054621585e-12
1.074068821e-12
1.1215881e-12
1.129365173e-12
1.106986986e-12
1.062773193e-12
2.513466286e-13
2.650792428e-13
2.689000931e-13
2.65418248e-13
2.560319257e-13
5.227404311e-14
5.594884857e-14
5.711011065e-14
5.638044341e-14
5.432976772e-14
8.541238638e-15
9.158783953e-15
9.371287369e-15
9.27202494e-15
9.103426341e-15
6.714210083e-16
8.210650303e-16
8.588645648e-16
8.128476908e-16
7.771872152e-16
3.079664397e-18
1.348588825e-17
2.140543371e-17
2.405851977e-17
2.429507072e-17
0
0
0
0
0
0
0
0
0
0
2.32731477e-18
2.914307605e-18
3.643849892e-18
3.588046415e-18
3.066284074e-18
7.030001509e-17
6.997427502e-17
6.869593771e-17
6.484108284e-17
5.661856953e-17
2.367600663e-16
2.335844184e-16
2.267040165e-16
2.108857766e-16
1.703776817e-16
5.131435133e-16
4.587309136e-16
3.366866916e-16
2.613554171e-16
2.100704163e-16
5.79197675e-16
5.285771526e-16
4.818255317e-16
4.348130866e-16
3.860057964e-16
7.050129304e-16
6.48267847e-16
5.995845091e-16
5.618691571e-16
5.651317313e-16
8.489450036e-16
8.286301613e-16
8.115957854e-16
7.782108537e-16
7.33666059e-16
8.776998101e-16
8.392612914e-16
7.977285688e-16
7.525804379e-16
7.050025003e-16
7.197769141e-16
6.921181667e-16
6.621820749e-16
6.31187445e-16
5.998981872e-16
5.40203127e-16
5.360822593e-16
5.28141758e-16
5.096827417e-16
4.929408447e-16
4.612847238e-16
4.592710867e-16
4.596438439e-16
4.532624218e-16
4.503625914e-16
1.377332611e-10
9.665858626e-12
4.344950706e-13
0
0
0
0
0
0
0
0
0
0
0
0
0
0
0
0
0
0
0
0
0
0
0
0
0
0
0
0
0
0
0
0
0
0
0
0
0
0
0
0
0
0
0
0
0
0
0
0
0
0
0
0
0
0
0
0
0
9.594599961e-09
8.188925357e-10
5.591749543e-11
6.091442859e-12
1.137382668e-12
1.909390414e-13
0
0
0
0
0
0
0
0
0
0
0
0
0
0
0
0
0
0
0
0
0
0
0
0
0
0
0
0
0
0
0
0
0
0
0
0
0
0
0
0
0
0
0
0
0
0
0
0
0
0
0
0
0
0
2.948954101e-08
5.42571021e-09
5.3606097e-10
6.734394329e-11
1.487441365e-11
4.874587e-12
1.843076072e-12
6.240374929e-13
1.050191247e-13
0
0
0
0
0
0
0
0
0
0
0
0
0
0
0
0
0
0
0
0
0
0
0
0
0
0
0
0
0
0
0
0
0
0
0
0
0
0
0
0
0
0
0
0
0
0
0
0
0
0
0
5.252408371e-07
1.214140778e-07
1.333557182e-08
1.065725988e-09
1.669485792e-10
4.791665392e-11
1.869622468e-11
7.899256571e-12
3.160655588e-12
1.06973492e-12
2.202451645e-13
0
0
0
0
0
0
0
0
0
0
0
0
0
0
0
0
0
0
0
0
0
0
0
0
0
0
0
0
0
0
0
0
0
0
0
0
0
0
0
0
0
0
0
0
0
0
0
0
0
1.748118662e-06
5.270510392e-07
1.277415708e-07
1.44042919e-08
1.678022286e-09
3.625626086e-10
1.201373727e-10
4.752960488e-11
1.941177245e-11
7.56375536e-12
2.604152651e-12
6.774051515e-13
5.174172844e-14
0
0
0
0
0
0
0
0
0
0
0
0
0
0
0
0
0
0
0
0
0
0
0
0
0
0
0
0
0
0
0
0
0
0
0
0
0
0
0
0
0
0
0
0
0
0
0
1.653761147e-06
5.791549564e-07
2.716540102e-07
7.769902349e-08
9.932022146e-09
1.646783647e-09
4.545912304e-10
1.64807968e-10
6.508133265e-11
2.54392255e-11
9.288643592e-12
2.963572143e-12
7.002660825e-13
4.172280364e-14
0
0
0
0
0
0
0
0
0
0
0
0
0
0
0
0
0
0
0
0
0
0
0
0
0
0
0
0
0
0
0
0
0
0
0
0
0
0
0
0
0
0
0
0
0
0
1.849212268e-06
4.1982246e-07
3.151202117e-07
2.079004427e-07
5.39773687e-08
7.368019678e-09
1.540148222e-09
4.841934755e-10
1.803363649e-10
6.88980529e-11
2.526155115e-11
8.476145536e-12
2.421961787e-12
4.760312764e-13
4.524958767e-15
0
0
0
0
0
0
0
0
0
0
0
0
0
0
0
0
0
0
0
0
0
0
0
0
0
0
0
0
0
0
0
0
0
0
0
0
0
0
0
0
0
0
0
0
0
4.267954219e-06
4.243914344e-07
3.203460384e-07
3.345791208e-07
1.99141099e-07
3.645167884e-08
5.634497066e-09
1.421685033e-09
4.73639023e-10
1.717817349e-10
6.141138794e-11
2.057646743e-11
6.171692558e-12
1.505602395e-12
2.042986136e-13
0
0
0
0
0
0
0
0
0
0
0
0
0
0
0
0
0
0
0
0
0
0
0
0
0
0
0
0
0
0
0
0
0
0
0
0
0
0
0
0
0
0
0
0
0
2.37273081e-05
1.611794166e-06
5.449410982e-07
5.233900694e-07
4.710544907e-07
1.694543309e-07
2.316096255e-08
4.261696083e-09
1.193678536e-09
3.958686903e-10
1.345514847e-10
4.382860139e-11
1.313343182e-11
3.420107183e-12
6.528106249e-13
2.253326333e-14
0
0
0
0
0
0
0
0
0
0
0
0
0
0
0
0
0
0
0
0
0
0
0
0
0
0
0
0
0
0
0
0
0
0
0
0
0
0
0
0
0
0
0
0
4.638623639e-05
3.3952587e-06
6.16729568e-07
6.360356323e-07
7.217955769e-07
4.804165057e-07
9.399934521e-08
1.270992119e-08
2.84377914e-09
8.370677997e-10
2.660085088e-10
8.305920052e-11
2.435550385e-11
6.434637501e-12
1.387572194e-12
1.546311938e-13
0
0
0
0
0
0
0
0
0
0
0
0
0
0
0
0
0
0
0
0
0
0
0
0
0
0
0
0
0
0
0
0
0
0
0
0
0
0
0
0
0
0
0
0
6.35078785e-05
5.646982366e-06
5.801838204e-07
6.003646261e-07
9.164918818e-07
8.920664831e-07
2.912907676e-07
4.080919896e-08
7.090110924e-09
1.748418395e-09
4.984359249e-10
1.449636317e-10
4.06537429e-11
1.060258612e-11
2.406332813e-12
3.714535608e-13
1.17695801e-16
0
0
0
0
0
0
0
0
0
0
0
0
0
0
0
0
0
0
0
0
0
0
0
0
0
0
0
0
0
0
0
0
0
0
0
0
0
0
0
0
0
0
0
7.523888647e-05
7.797756475e-06
7.042498006e-07
5.072820329e-07
1.102256797e-06
1.362919668e-06
7.008819511e-07
1.10761339e-07
1.6875991e-08
3.417372609e-09
8.479548205e-10
2.249314794e-10
5.949617094e-11
1.515268612e-11
3.530610964e-12
6.34224496e-13
2.164229121e-14
0
0
0
0
0
0
0
0
0
0
0
0
0
0
0
0
0
0
0
0
0
0
0
0
0
0
0
0
0
0
0
0
0
0
0
0
0
0
0
0
0
0
0
0.0001985173394
2.263183487e-05
2.131161732e-06
5.77925567e-07
1.420870322e-06
2.037954338e-06
1.386404365e-06
2.762692371e-07
3.850456061e-08
6.368897979e-09
1.308889317e-09
3.070856139e-10
7.583424515e-11
1.891028032e-11
4.529919733e-12
9.050626242e-13
6.94362933e-14
0
0
0
0
0
0
0
0
0
0
0
0
0
0
0
0
0
0
0
0
0
0
0
0
0
0
0
0
0
0
0
0
0
0
0
0
0
0
0
0
0
0
0
0.000366743029
4.734344843e-05
5.145519173e-06
7.933186028e-07
1.888951407e-06
3.023225459e-06
2.414868032e-06
6.95762547e-07
8.707504925e-08
1.230817178e-08
2.014054063e-09
4.003632064e-10
9.05991556e-11
2.212064178e-11
5.465714954e-12
1.192210071e-12
1.349883812e-13
0
0
0
0
0
0
0
0
0
0
0
0
0
0
0
0
0
0
0
0
0
0
0
0
0
0
0
0
0
0
0
0
0
0
0
0
0
0
0
0
0
0
0
0.0005049651809
7.404541336e-05
9.164093072e-06
1.225954136e-06
2.711056593e-06
4.473528683e-06
3.731673417e-06
1.46251052e-06
2.021119112e-07
2.481563337e-08
3.10075529e-09
4.986525784e-10
1.021179377e-10
2.457321283e-11
6.281040056e-12
1.469076883e-12
2.092133894e-13
0
0
0
0
0
0
0
0
0
0
0
0
0
0
0
0
0
0
0
0
0
0
0
0
0
0
0
0
0
0
0
0
0
0
0
0
0
0
0
0
0
0
0
0.0005911566741
9.647739264e-05
1.331885376e-05
1.949621269e-06
4.667156145e-06
6.698106289e-06
5.240429479e-06
2.460486579e-06
4.458348677e-07
5.200906927e-08
4.879009193e-09
6.077294381e-10
1.125789718e-10
2.707761931e-11
7.141783179e-12
1.752433106e-12
2.879197474e-13
0
0
0
0
0
0
0
0
0
0
0
0
0
0
0
0
0
0
0
0
0
0
0
0
0
0
0
0
0
0
0
0
0
0
0
0
0
0
0
0
0
0
0
0.000620358458
0.0001068798999
1.549912476e-05
4.387838505e-06
9.270837068e-06
9.850660716e-06
6.812558515e-06
3.315602114e-06
8.649438317e-07
1.110383582e-07
8.748396361e-09
8.705305159e-10
1.44971875e-10
3.359347923e-11
8.758692733e-12
2.18368708e-12
3.941478296e-13
5.420065761e-15
0
0
0
0
0
0
0
0
0
0
0
0
0
0
0
0
0
0
0
0
0
0
0
0
0
0
0
0
0
0
0
0
0
0
0
0
0
0
0
0
0
0
0.0005180890946
8.495040595e-05
1.241328573e-05
1.326861507e-05
1.661879105e-05
1.341807785e-05
8.232031846e-06
3.984273271e-06
1.383566004e-06
2.722609626e-07
2.653868318e-08
2.272985222e-09
2.842879111e-10
5.322420091e-11
1.244301197e-11
2.986781272e-12
5.680954504e-13
2.345566576e-14
0
0
0
0
0
0
0
0
0
0
0
0
0
0
0
0
0
0
0
0
0
0
0
0
0
0
0
0
0
0
0
0
0
0
0
0
0
0
0
0
0
0
0.0001323259216
2.740014566e-05
2.86705861e-05
3.249195773e-05
2.556679001e-05
1.674043024e-05
9.52629481e-06
4.704677676e-06
1.950863457e-06
5.999100127e-07
1.067435583e-07
1.040344689e-08
9.333468558e-10
1.18543695e-10
2.163808334e-11
4.682125675e-12
9.110489049e-13
7.944908178e-14
0
0
0
0
0
0
0
0
0
0
0
0
0
0
0
0
0
0
0
0
0
0
0
0
0
0
0
0
0
0
0
0
0
0
0
0
0
0
0
0
0
0
0.0002113058923
0.0001139178909
7.441642622e-05
4.975182719e-05
3.191171706e-05
1.926271526e-05
1.076783689e-05
5.494139924e-06
2.515589051e-06
9.923093706e-07
2.9450607e-07
5.105104532e-08
4.917047509e-09
4.352877894e-10
5.332874686e-11
9.067403201e-12
1.679862516e-12
2.17411617e-13
0
0
0
0
0
0
0
0
0
0
0
0
0
0
0
0
0
0
0
0
0
0
0
0
0
0
0
0
0
0
0
0
0
0
0
0
0
0
0
0
0
0
0.0002201453906
0.0001388018606
8.873550194e-05
5.647587982e-05
3.510186628e-05
2.095025196e-05
1.185488878e-05
6.296959853e-06
3.1026652e-06
1.389419357e-06
5.402485099e-07
1.58758139e-07
2.716373649e-08
2.53221275e-09
2.139657699e-10
2.457339938e-11
3.720020941e-12
5.442806151e-13
8.53019929e-15
0
0
0
0
0
0
0
0
0
0
0
0
0
0
0
0
0
0
0
0
0
0
0
0
0
0
0
0
0
0
0
0
0
0
0
0
0
0
0
0
0
0.000191774267
0.0001310330359
8.733777223e-05
5.679217201e-05
3.582896129e-05
2.178268433e-05
1.268596776e-05
7.036010956e-06
3.686280786e-06
1.799001326e-06
7.978015872e-07
3.065106896e-07
8.873769519e-08
1.475142619e-08
1.299129301e-09
1.028051875e-10
1.077249767e-11
1.407394367e-12
1.104452221e-13
0
0
0
0
0
0
0
0
0
0
0
0
0
0
0
0
0
0
0
0
0
0
0
0
0
0
0
0
0
0
0
0
0
0
0
0
0
0
0
0
0
0.0001616556472
0.0001158563948
8.015485489e-05
5.368452497e-05
3.480709502e-05
2.1785909e-05
1.312948823e-05
7.592080463e-06
4.187724235e-06
2.181131914e-06
1.054534857e-06
4.60230427e-07
1.726795302e-07
4.836620307e-08
7.612575071e-09
6.155867693e-10
4.445586674e-11
4.250266016e-12
4.150722233e-13
0
0
0
0
0
0
0
0
0
0
0
0
0
0
0
0
0
0
0
0
0
0
0
0
0
0
0
0
0
0
0
0
0
0
0
0
0
0
0
0
0
0.0001333337264
9.890027904e-05
7.054377808e-05
4.859478031e-05
3.23983134e-05
2.090443507e-05
1.302769661e-05
7.822869854e-06
4.505548379e-06
2.469480996e-06
1.272092493e-06
6.041362922e-07
2.56656976e-07
9.270733564e-08
2.462735323e-08
3.577784047e-09
2.576363239e-10
1.715807945e-11
1.400940658e-12
5.091051449e-14
0
0
0
0
0
0
0
0
0
0
0
0
0
0
0
0
0
0
0
0
0
0
0
0
0
0
0
0
0
0
0
0
0
0
0
0
0
0
0
0
0.0001062426413
8.033469624e-05
5.861394539e-05
4.173612148e-05
2.865715349e-05
1.903451622e-05
1.224772496e-05
7.612060719e-06
4.551960483e-06
2.602398014e-06
1.408745854e-06
7.119363611e-07
3.289374317e-07
1.344757172e-07
4.602405795e-08
1.131986368e-08
1.474680592e-09
9.555717786e-11
5.727007809e-12
3.309286085e-13
0
0
0
0
0
0
0
0
0
0
0
0
0
0
0
0
0
0
0
0
0
0
0
0
0
0
0
0
0
0
0
0
0
0
0
0
0
0
0
0
8.183386304e-05
6.351532051e-05
4.780221633e-05
3.488430849e-05
2.466725346e-05
1.687615857e-05
1.116515206e-05
7.145117063e-06
4.40970268e-06
2.610016321e-06
1.469964889e-06
7.791802369e-07
3.827267389e-07
1.702414061e-07
6.612647026e-08
2.108049467e-08
4.674988374e-09
5.272716738e-10
2.998999847e-11
1.520377328e-12
1.296957049e-14
0
0
0
0
0
0
0
0
0
0
0
0
0
0
0
0
0
0
0
0
0
0
0
0
0
0
0
0
0
0
0
0
0
0
0
0
0
0
0
6.22525027e-05
4.925590745e-05
3.781343186e-05
2.819378762e-05
2.042140211e-05
1.435888797e-05
9.776120946e-06
6.430678515e-06
4.075043083e-06
2.482607081e-06
1.444134769e-06
7.949669727e-07
4.091114743e-07
1.934507747e-07
8.190169281e-08
2.978829079e-08
8.667212212e-09
1.674935684e-09
1.551807084e-10
7.399407388e-12
2.21371311e-13
0
0
0
0
0
0
0
0
0
0
0
0
0
0
0
0
0
0
0
0
0
0
0
0
0
0
0
0
0
0
0
0
0
0
0
0
0
0
0
4.640937842e-05
3.732896274e-05
2.917434375e-05
2.21746842e-05
1.639434134e-05
1.178253459e-05
8.218670158e-06
5.545915934e-06
3.607616335e-06
2.251902238e-06
1.344838897e-06
7.628632301e-07
4.069588272e-07
2.013724671e-07
9.061830776e-08
3.600072716e-08
1.20360951e-08
3.109814104e-09
5.012006308e-10
3.606080827e-11
1.29249135e-12
0
0
0
0
0
0
0
0
0
0
0
0
0
0
0
0
0
0
0
0
0
0
0
0
0
0
0
0
0
0
0
0
0
0
0
0
0
0
0
3.404130636e-05
2.777759978e-05
2.205112134e-05
1.704106795e-05
1.282019106e-05
9.382568878e-06
6.670034537e-06
4.594551913e-06
3.054810542e-06
1.952222246e-06
1.19276632e-06
6.927966171e-07
3.799785712e-07
1.945674349e-07
9.155028257e-08
3.86947399e-08
1.419534795e-08
4.278987514e-09
9.694748033e-10
1.281377586e-10
7.121933227e-12
1.153823215e-13
0
0
0
0
0
0
0
0
0
0
0
0
0
0
0
0
0
0
0
0
0
0
0
0
0
0
0
0
0
0
0
0
0
0
0
0
0
0
2.458265333e-05
2.030852741e-05
1.63354289e-05
1.279879625e-05
9.76621078e-06
7.25220958e-06
5.233439564e-06
3.662264209e-06
2.477399651e-06
1.612803211e-06
1.005577283e-06
5.967731027e-07
3.343896334e-07
1.757487618e-07
8.551390461e-08
3.782579894e-08
1.48203815e-08
4.92983422e-09
1.300959419e-09
2.46190706e-10
2.486816014e-11
8.82860278e-13
0
0
0
0
0
0
0
0
0
0
0
0
0
0
0
0
0
0
0
0
0
0
0
0
0
0
0
0
0
0
0
0
0
0
0
0
0
0
1.742583413e-05
1.454493132e-05
1.182576322e-05
9.368202264e-06
7.229006428e-06
5.429371996e-06
3.963534034e-06
2.806899776e-06
1.923239728e-06
1.270267304e-06
8.04617842e-07
4.860161305e-07
2.779075218e-07
1.489384976e-07
7.429452938e-08
3.397926903e-08
1.395386204e-08
4.987960501e-09
1.461614329e-09
3.12436687e-10
4.501153666e-11
2.923462494e-12
7.637185841e-15
0
0
0
0
0
0
0
0
0
0
0
0
0
0
0
0
0
0
0
0
0
0
0
0
0
0
0
0
0
0
0
0
0
0
0
0
0
1.206385782e-05
1.015460996e-05
8.327625357e-06
6.654622366e-06
5.180013845e-06
3.924617934e-06
2.890405887e-06
2.065466036e-06
1.428588754e-06
9.533257432e-07
6.111648053e-07
3.74242957e-07
2.174307378e-07
1.18809262e-07
6.04063222e-08
2.834071429e-08
1.205987903e-08
4.539341012e-09
1.440301231e-09
3.511298688e-10
6.406922522e-11
6.904614038e-12
2.105908651e-13
0
0
0
0
0
0
0
0
0
0
0
0
0
0
0
0
0
0
0
0
0
0
0
0
0
0
0
0
0
0
0
0
0
0
0
0
0
8.11366997e-06
6.877086888e-06
5.679091169e-06
4.569590818e-06
3.581366889e-06
2.731825588e-06
2.025581842e-06
1.457415565e-06
1.015194025e-06
6.8256837e-07
4.412829282e-07
2.729561821e-07
1.605076492e-07
8.904844832e-08
4.613170299e-08
2.20885922e-08
9.665220174e-09
3.784156608e-09
1.280946881e-09
3.383937056e-10
5.227538273e-11
6.021286794e-12
2.642516718e-13
0
0
0
0
0
0
0
0
0
0
0
0
0
0
0
0
0
0
0
0
0
0
0
0
0
0
0
0
0
0
0
0
0
0
0
0
0
5.279704036e-06
4.501248897e-06
3.738522755e-06
3.025061682e-06
2.383854639e-06
1.828112839e-06
1.362643864e-06
9.855756394e-07
6.901932393e-07
4.666584092e-07
3.035503428e-07
1.891184751e-07
1.122014313e-07
6.293910834e-08
3.309801513e-08
1.612571182e-08
7.211842844e-09
2.908512445e-09
1.021910686e-09
2.845188475e-10
4.62332348e-11
0
0
0
0
0
0
0
0
0
0
0
0
0
0
0
0
0
0
0
0
0
0
0
0
0
0
0
0
0
0
0
0
0
0
0
0
0
0
0
3.315543108e-06
2.841072924e-06
2.371213999e-06
1.927678806e-06
1.52585981e-06
1.175115634e-06
8.794764499e-07
6.386212409e-07
4.489766752e-07
3.047937627e-07
1.991341513e-07
1.24699024e-07
7.446975204e-08
4.214358388e-08
2.24225961e-08
1.110278905e-08
5.056378004e-09
2.091176662e-09
7.612405337e-10
2.299427395e-10
4.012600872e-11
0
0
0
0
0
0
0
0
0
0
0
0
0
0
0
0
0
0
0
0
0
0
0
0
0
0
0
0
0
0
0
0
0
0
0
0
0
0
0
2.006116147e-06
1.726767876e-06
1.447290298e-06
1.181215286e-06
9.384068019e-07
7.251286293e-07
5.443839158e-07
3.96447625e-07
2.795008356e-07
1.902838894e-07
1.247081097e-07
7.838207941e-08
4.702893167e-08
2.678361326e-08
1.437751737e-08
7.21178524e-09
3.339279745e-09
1.407384016e-09
5.234371473e-10
1.58525849e-10
2.736355634e-11
0
0
0
0
0
0
0
0
0
0
0
0
0
0
0
0
0
0
0
0
0
0
0
0
0
0
0
0
0
0
0
0
0
0
0
0
0
0
0
1.167905382e-06
1.009286504e-06
8.490224604e-07
6.952229772e-07
5.539419733e-07
4.291577456e-07
3.229239902e-07
2.356484487e-07
1.664488661e-07
1.13531305e-07
7.45609106e-08
4.698377393e-08
2.828781874e-08
1.619111797e-08
8.754627229e-09
4.43604339e-09
2.084031424e-09
8.92315142e-10
3.388910154e-10
1.043837203e-10
2.271032308e-11
0
0
0
0
0
0
0
0
0
0
0
0
0
0
0
0
0
0
0
0
0
0
0
0
0
0
0
0
0
0
0
0
0
0
0
0
0
0
0
6.531017671e-07
5.663895302e-07
4.779447575e-07
3.92436267e-07
3.134191945e-07
2.432940962e-07
1.833671832e-07
1.339906297e-07
9.475606886e-08
6.470640709e-08
4.255238775e-08
2.686151367e-08
1.621394646e-08
9.315177542e-09
5.064771612e-09
2.587461335e-09
1.229867827e-09
5.353721925e-10
2.052622422e-10
6.211073564e-11
9.837175186e-12
0
0
0
0
0
0
0
0
0
0
0
0
0
0
0
0
0
0
0
0
0
0
0
0
0
0
0
0
0
0
0
0
0
0
0
0
0
0
0
3.500910786e-07
3.045585071e-07
2.576908292e-07
2.120665756e-07
1.696807401e-07
1.319092607e-07
9.953016247e-08
7.279143274e-08
5.151208971e-08
3.519905423e-08
2.316620615e-08
1.464114713e-08
8.854097155e-09
5.10176432e-09
2.786620915e-09
1.433116448e-09
6.871852949e-10
3.029027388e-10
1.167711403e-10
3.544686868e-11
3.737250377e-12
0
0
0
0
0
0
0
0
0
0
0
0
0
0
0
0
0
0
0
0
0
0
0
0
0
0
0
0
0
0
0
0
0
0
0
0
0
0
0
1.794863094e-07
1.565833105e-07
1.327990067e-07
1.094958905e-07
8.774205771e-08
6.828647668e-08
5.156497199e-08
3.773184931e-08
2.671120755e-08
1.825813802e-08
1.20221167e-08
7.604139592e-09
4.605017033e-09
2.659571546e-09
1.457901169e-09
7.536978321e-10
3.639801568e-10
1.619116323e-10
6.221149807e-11
1.795520303e-11
1.1559412e-12
0
0
0
0
0
0
0
0
0
0
0
0
0
0
0
0
0
0
0
0
0
0
0
0
0
0
0
0
0
0
0
0
0
0
0
0
0
0
0
8.781757962e-08
7.681333543e-08
6.528496678e-08
5.391982167e-08
4.326243208e-08
3.369994113e-08
2.546262619e-08
1.863820241e-08
1.319685937e-08
9.02190181e-09
5.94209446e-09
3.760561417e-09
2.279825665e-09
1.319105521e-09
7.252234209e-10
3.765256893e-10
1.827806289e-10
8.125858513e-11
3.209258263e-11
7.982502128e-12
0
0
0
0
0
0
0
0
0
0
0
0
0
0
0
0
0
0
0
0
0
0
0
0
0
0
0
0
0
0
0
0
0
0
0
0
0
0
0
0
4.092670744e-08
3.588923165e-08
3.056484143e-08
2.528383015e-08
2.031016505e-08
1.5833746e-08
1.196947997e-08
8.763863034e-09
6.206055005e-09
4.243010298e-09
2.79506735e-09
1.769631912e-09
1.073721632e-09
6.221137499e-10
3.427702591e-10
1.784030933e-10
8.667260198e-11
3.814284111e-11
1.481123698e-11
2.327299085e-12
0
0
0
0
0
0
0
0
0
0
0
0
0
0
0
0
0
0
0
0
0
0
0
0
0
0
0
0
0
0
0
0
0
0
0
0
0
0
0
0
1.814040805e-08
1.594787039e-08
1.360928661e-08
1.127540364e-08
9.067810279e-09
7.074870934e-09
5.350757771e-09
3.918939701e-09
2.775546911e-09
1.897721272e-09
1.250310677e-09
7.918503357e-10
4.807577968e-10
2.78829183e-10
1.538680356e-10
8.020652472e-11
3.895391051e-11
1.699899809e-11
6.69761332e-12
1.85943099e-12
0
0
0
0
0
0
0
0
0
0
0
0
0
0
0
0
0
0
0
0
0
0
0
0
0
0
0
0