/*--------------------------------*- C++ -*----------------------------------*\
  =========                 |
  \\      /  F ield         | OpenFOAM: The Open Source CFD Toolbox
   \\    /   O peration     | Website:  https://openfoam.org
    \\  /    A nd           | Version:  10
     \\/     M anipulation  |
\*---------------------------------------------------------------------------*/
FoamFile
{
    format      ascii;
    class       volScalarField;
    location    "0.02499901733";
    object      C2H5_0;
}
// * * * * * * * * * * * * * * * * * * * * * * * * * * * * * * * * * * * * * //

dimensions      [0 0 0 0 0 0 0];

internalField   nonuniform List<scalar> 
5170
(
0
0
0
0
0
0
0
0
0
0
0
0
0
0
0
0
0
0
0
0
0
0
0
0
0
0
0
0
0
0
0
0
0
0
0
0
0
0
0
0
0
0
0
0
0
0
0
0
0
0
0
0
0
0
0
0
0
0
0
0
0
0
0
0
0
0
0
0
0
0
0
0
0
0
0
0
0
0
0
0
0
0
0
0
0
0
0
0
0
0
0
0
0
0
0
0
0
0
0
6.55862243e-11
3.506380472e-25
1.257982785e-24
7.368951359e-25
2.0639815e-24
2.268575912e-24
1.094727703e-24
1.789299408e-24
1.700047532e-24
1.870227769e-24
1.387487397e-24
3.714116109e-25
7.0561174e-25
5.891665911e-25
5.229182005e-25
2.486336278e-25
0
1.98823156e-25
6.630867893e-26
4.938562658e-26
0
0
0
0
0
0
0
0
0
0
0
0
0
0
0
0
0
0
0
0
0
0
0
0
0
0
0
0
0
0
0
0
0
0
0
0
0
0
0
0
0
0
0
0
0
0
0
0
0
0
0
0
0
0
0
0
0
0
0
0
0
0
0
0
0
0
0
0
0
0
0
1.439056088e-12
0
0
0
0
1.894230654e-09
4.095055974e-10
5.735808651e-11
4.338114091e-13
1.215217774e-15
0
0
2.112307205e-10
3.477829123e-09
5.844075882e-08
0
2.575115113e-11
7.030933543e-10
7.290059262e-09
7.98630068e-08
0
8.474322928e-11
1.163400002e-09
9.802288836e-09
7.041856707e-08
4.797141535e-13
1.697305581e-10
1.543214952e-09
1.084448397e-08
5.738915374e-08
1.436829391e-11
2.710998252e-10
1.751261029e-09
1.113525542e-08
4.95361841e-08
4.382193097e-11
4.04879211e-10
2.116891705e-09
1.136014726e-08
4.751337307e-08
9.600931897e-11
5.922984098e-10
2.608644373e-09
1.188363211e-08
4.938519476e-08
1.705535234e-10
7.512307007e-10
3.186363717e-09
1.263709174e-08
5.149872957e-08
2.281353326e-10
6.921925336e-10
3.674159892e-09
1.284427078e-08
4.933557446e-08
3.344363376e-10
9.803457161e-10
4.089654039e-09
1.304519189e-08
4.786382029e-08
5.202907871e-10
1.401853201e-09
4.527888598e-09
1.381130163e-08
4.954113881e-08
6.776643027e-10
1.788495322e-09
5.011714633e-09
1.502728682e-08
5.270445683e-08
9.174004812e-10
2.168865839e-09
5.494475078e-09
1.623152707e-08
5.493945641e-08
1.336338623e-09
2.567101427e-09
6.120672353e-09
1.792208658e-08
5.823392776e-08
1.833019924e-09
3.185787265e-09
7.000664966e-09
2.010885833e-08
6.196224605e-08
2.159788242e-09
3.729013189e-09
8.701595025e-09
2.544380947e-08
6.820623688e-08
3.027723249e-09
4.834865405e-09
1.108639896e-08
3.004588114e-08
8.137335847e-08
4.285885418e-09
6.504050669e-09
1.361257268e-08
3.996843982e-08
1.05095377e-07
7.05793334e-09
1.080952601e-08
2.300024413e-08
5.597785993e-08
1.389926148e-07
1.213319728e-08
1.716073058e-08
3.16211761e-08
6.47732253e-08
1.372192596e-07
1.985279127e-08
2.478747921e-08
3.722145533e-08
6.097644808e-08
1.034031334e-07
2.460339594e-08
2.766790119e-08
3.48264019e-08
4.679760591e-08
6.481446499e-08
1.97374107e-08
2.097981499e-08
2.35207996e-08
2.734196956e-08
3.228478303e-08
1.061502835e-08
1.087423672e-08
1.13622361e-08
1.198420315e-08
1.261196071e-08
4.337823419e-09
4.37011948e-09
4.402071598e-09
4.384007222e-09
4.340969751e-09
1.576454532e-09
1.569467264e-09
1.546735235e-09
1.503933491e-09
1.442729238e-09
5.988001401e-10
5.936571214e-10
5.80332663e-10
5.582440732e-10
5.291041395e-10
2.336578128e-10
2.310725565e-10
2.24831827e-10
2.153813168e-10
2.028140624e-10
9.251229127e-11
9.147631775e-11
8.905057012e-11
8.549007236e-11
8.104544001e-11
3.568231981e-11
3.518243635e-11
3.42710905e-11
3.292271113e-11
3.119390565e-11
1.374588269e-11
1.390886064e-11
1.395016824e-11
1.351327797e-11
1.286630097e-11
6.147150706e-12
6.09693539e-12
5.971483754e-12
5.784771413e-12
5.544040294e-12
2.929468242e-12
2.913212107e-12
2.876743097e-12
2.823671807e-12
2.754016251e-12
1.721831657e-12
1.719583298e-12
1.714310491e-12
1.706584723e-12
1.693398056e-12
1.287741395e-12
1.290662694e-12
1.29688126e-12
1.305879375e-12
1.314760656e-12
1.069135604e-12
1.076338083e-12
1.092396985e-12
1.11796519e-12
1.15265263e-12
9.047904301e-13
9.116337693e-13
9.263757475e-13
9.482488582e-13
9.766425268e-13
6.484305925e-13
6.546766565e-13
6.679758815e-13
6.874143294e-13
7.121108955e-13
4.120427799e-13
4.161029647e-13
4.246657147e-13
4.369365399e-13
4.514993131e-13
2.125845934e-13
2.145523107e-13
2.161710736e-13
2.193513429e-13
2.190061851e-13
5.228695959e-14
4.764313333e-14
4.244148338e-14
3.263333346e-14
2.50261654e-14
0
0
0
0
0
2.02633946e-14
2.000506408e-14
1.944941203e-14
1.874482961e-14
1.789359432e-14
1.107359915e-15
1.554478269e-15
4.33762994e-16
0
0
0
0
0
0
0
0
0
0
0
0
0
0
0
0
0
2.05402205e-14
1.94398378e-14
1.73320465e-14
1.449982595e-14
1.124180093e-14
4.706030436e-15
4.607467355e-15
4.4339424e-15
4.164774653e-15
3.715117802e-15
0
0
0
0
0
0
0
0
0
0
0
0
0
0
0
0
0
0
0
0
2.784841762e-16
0
0
0
1.323816815e-15
1.472550984e-14
1.462890899e-14
1.443837232e-14
1.413007603e-14
1.356679217e-14
1.365839726e-14
1.314611365e-14
1.204617291e-14
1.037643779e-14
8.347109812e-15
1.111479556e-14
1.060415385e-14
9.496615674e-15
7.772881316e-15
5.376889709e-15
8.186133966e-15
7.795302768e-15
7.049409289e-15
6.09976267e-15
4.945473766e-15
2.164536654e-14
2.122847016e-14
2.047749716e-14
1.968942895e-14
1.913848259e-14
5.370409802e-14
5.301893767e-14
5.157964152e-14
4.948676116e-14
4.680797015e-14
7.298428287e-14
7.212340632e-14
7.031345641e-14
6.770665248e-14
6.443525075e-14
9.013793493e-14
8.940266979e-14
8.784380918e-14
8.559359777e-14
8.283344828e-14
1.069196448e-13
1.062287992e-13
1.048002312e-13
1.027801177e-13
1.002784484e-13
1.154206983e-13
1.14819129e-13
1.136622576e-13
1.118826008e-13
1.088347274e-13
1.465684063e-13
1.454014564e-13
1.42893722e-13
1.391554453e-13
1.342181796e-13
1.978376269e-13
1.960091209e-13
1.919641772e-13
1.859664435e-13
1.787029589e-13
2.389386878e-13
2.3667421e-13
2.318092442e-13
2.246129591e-13
2.152034274e-13
2.391336304e-13
2.365403757e-13
2.309368537e-13
2.226303763e-13
2.118657303e-13
2.617880589e-13
2.594475782e-13
2.543993673e-13
2.469459674e-13
2.373436612e-13
3.549800733e-13
3.537239259e-13
3.511093886e-13
3.474049263e-13
3.429650712e-13
2.086342413e-07
3.127336376e-07
2.532237501e-07
1.909102231e-07
1.654013266e-07
1.633568287e-07
1.688258323e-07
1.651901356e-07
1.45686833e-07
1.332497967e-07
1.321328693e-07
1.351826465e-07
1.355108621e-07
1.37435576e-07
1.400884937e-07
1.473209343e-07
1.706356752e-07
2.149182457e-07
2.761344394e-07
2.39129607e-07
1.520828584e-07
8.199340516e-08
3.631573002e-08
1.312031695e-08
4.302676826e-09
1.398967539e-09
5.087093094e-10
1.941263986e-10
7.807602814e-11
2.996163483e-11
1.239616241e-11
5.375926885e-12
2.701085594e-12
1.696227456e-12
1.328712366e-12
1.181216362e-12
9.997715476e-13
7.321844242e-13
4.629561941e-13
2.165719785e-13
2.066267189e-14
0
1.710571758e-14
0
0
0
0
8.98818788e-15
3.190249948e-15
0
0
0
0
3.784467346e-15
1.289991652e-14
7.142846693e-15
3.55596007e-15
3.706964084e-15
1.863067387e-14
4.45485409e-14
6.180859275e-14
8.078759285e-14
9.847286257e-14
1.060108754e-13
1.301763543e-13
1.727971663e-13
2.073444866e-13
2.031599314e-13
2.29719774e-13
3.396760428e-13
5.58658666e-07
7.384722025e-08
3.19136667e-09
1.041753102e-10
8.846097917e-12
1.206269457e-06
1.356250479e-05
7.785149867e-07
2.462217753e-08
1.172998606e-09
8.499139377e-07
6.106481346e-06
6.012588869e-07
3.259561475e-08
4.435534827e-09
5.527024823e-07
3.010877315e-06
7.662676473e-07
6.294131164e-08
3.512070158e-09
5.018844589e-07
2.778080226e-06
9.981148797e-06
9.825598013e-07
6.885050039e-08
5.109377757e-07
3.081460721e-06
1.522146578e-05
1.902666706e-06
1.732023959e-07
5.121045219e-07
2.959875209e-06
1.387260911e-05
2.061476692e-06
2.346684487e-07
4.665880502e-07
2.409814142e-06
9.804351394e-06
1.690367354e-06
2.292791589e-07
3.898823218e-07
1.866582591e-06
6.852739492e-06
3.749907779e-06
5.460319923e-07
3.444916271e-07
1.609043869e-06
5.799289877e-06
7.807473103e-06
1.252702908e-06
3.319154036e-07
1.517420909e-06
5.474304704e-06
1.087933667e-05
1.939179822e-06
3.313436983e-07
1.459354712e-06
5.170888985e-06
1.22842947e-05
2.389326766e-06
3.260404923e-07
1.416937644e-06
4.624843016e-06
1.18437952e-05
2.872408303e-06
3.198143483e-07
1.311852832e-06
4.175988047e-06
1.089907325e-05
4.517300565e-06
3.166060703e-07
1.235675276e-06
3.90839773e-06
1.010779961e-05
6.451982231e-06
3.236539683e-07
1.200137616e-06
3.722818323e-06
9.462492471e-06
8.099703536e-06
3.637534798e-07
1.277264886e-06
3.755066311e-06
9.360099753e-06
8.593211988e-06
4.476174385e-07
1.504839177e-06
4.287346456e-06
1.018893398e-05
6.612093311e-06
5.647775104e-07
1.771352841e-06
4.911583677e-06
1.144409095e-05
3.230830771e-06
4.411221892e-07
1.162439874e-06
2.545489891e-06
4.836995889e-06
6.548791557e-06
2.418070471e-07
4.927283251e-07
8.88982401e-07
1.327845054e-06
1.518158316e-06
1.120755351e-07
1.74351534e-07
2.424289725e-07
2.856943988e-07
2.674478529e-07
4.35067086e-08
5.302845156e-08
5.760316511e-08
5.447311943e-08
4.367701441e-08
1.420882064e-08
1.46235337e-08
1.35410018e-08
1.12405358e-08
8.325590828e-09
4.380458543e-09
4.125995303e-09
3.549577715e-09
2.799710487e-09
2.030058356e-09
1.374762086e-09
1.243039277e-09
1.041946549e-09
8.13988204e-10
5.957856449e-10
4.92606991e-10
4.398992856e-10
3.688851554e-10
2.907768965e-10
2.186176872e-10
1.867305988e-10
1.666871898e-10
1.396884552e-10
1.095227572e-10
8.505604751e-11
7.547391594e-11
6.929098821e-11
5.740446477e-11
4.508365638e-11
3.362946529e-11
2.870086913e-11
2.531627351e-11
2.268583588e-11
1.871000498e-11
1.465459395e-11
1.194558213e-11
1.087054325e-11
9.676064498e-12
8.216762066e-12
6.645231356e-12
5.217315987e-12
4.750403624e-12
4.262616966e-12
3.877584481e-12
3.384754612e-12
2.651197331e-12
2.519984504e-12
2.378117881e-12
2.20634539e-12
2.062240163e-12
1.711685208e-12
1.69746193e-12
1.680469955e-12
1.68229961e-12
1.72235293e-12
1.351763074e-12
1.397800191e-12
1.45553669e-12
1.537429047e-12
1.634280621e-12
1.224549765e-12
1.285047044e-12
1.36427731e-12
1.47131894e-12
1.607132594e-12
1.036576788e-12
1.101602452e-12
1.172498902e-12
1.271128152e-12
1.36901167e-12
7.661120337e-13
8.290551734e-13
8.560127257e-13
8.946216012e-13
9.417770879e-13
4.848244368e-13
5.039196348e-13
5.029107328e-13
5.079185682e-13
5.257312111e-13
2.151263798e-13
2.035609381e-13
1.93737543e-13
1.952695616e-13
2.285580192e-13
1.540616655e-14
1.621638675e-14
2.731735583e-14
5.632673163e-14
6.200333468e-14
0
1.409917507e-14
1.659540066e-14
6.953091926e-15
0
1.635128897e-14
9.239792332e-15
0
0
0
0
0
0
0
0
0
0
0
0
0
0
0
0
0
0
0
0
0
2.118727999e-15
2.079000103e-15
6.140556156e-15
3.774058505e-15
3.412910115e-15
1.735107391e-15
0
2.779308053e-15
0
0
0
0
0
0
0
0
0
0
0
0
0
0
0
0
0
0
0
2.536627076e-16
4.813277859e-16
4.492571142e-16
0
1.408793315e-15
5.169924301e-15
3.828023786e-15
4.458986034e-15
4.491468752e-15
3.027900305e-15
1.13663412e-14
8.547717306e-15
5.005342932e-15
1.211831935e-15
3.140559696e-16
5.438290089e-15
3.24884772e-15
7.334447261e-16
1.692131546e-15
1.78888809e-15
9.935500169e-16
1.10261374e-15
1.722612109e-15
1.798253062e-15
1.67857017e-15
1.517016857e-15
3.905681273e-16
7.372289935e-16
1.533396435e-15
6.167699532e-16
1.744360574e-14
1.523967261e-14
1.432090233e-14
1.181807573e-14
8.224449039e-15
4.040305041e-14
3.360370822e-14
2.644738652e-14
1.911328628e-14
1.221410303e-14
5.726182555e-14
5.009082179e-14
4.298044697e-14
3.668756237e-14
3.262850912e-14
7.741383609e-14
7.288991941e-14
6.913756507e-14
6.906629019e-14
7.796393212e-14
9.602788326e-14
9.76198517e-14
8.323070387e-14
7.530200469e-14
6.941442686e-14
1.015507902e-13
9.359967327e-14
8.499960705e-14
7.672456487e-14
6.917501684e-14
1.238049521e-13
1.127421815e-13
1.010475132e-13
8.886865022e-14
7.627251198e-14
1.636439094e-13
1.473376268e-13
1.301251925e-13
1.12084106e-13
9.379285743e-14
1.949674076e-13
1.734101969e-13
1.502009786e-13
1.245912749e-13
9.832357887e-14
1.898762536e-13
1.667619421e-13
1.424077754e-13
1.180169402e-13
9.59325745e-14
2.182092717e-13
1.996885632e-13
1.813520595e-13
1.664380751e-13
1.551479662e-13
3.335708524e-13
3.246052786e-13
3.172743231e-13
3.110178074e-13
3.055798329e-13
1.120012604e-12
1.568051592e-12
0
0
0
0
0
0
0
0
0
0
0
0
0
0
0
0
0
0
0
0
0
0
0
0
0
0
0
0
0
0
0
0
0
0
0
0
0
0
0
0
0
0
0
0
0
0
0
0
0
0
0
0
0
0
0
0
0
0
2.369074771e-11
4.071229268e-11
0
0
0
0
0
0
0
0
0
0
0
0
0
0
0
0
0
0
0
0
0
0
0
0
0
0
0
0
0
0
0
0
0
0
0
0
0
0
0
0
0
0
0
0
0
0
0
0
0
0
0
0
0
0
0
0
0
0
1.259622749e-10
0
0
0
0
0
0
0
0
0
0
0
0
0
0
0
0
0
0
0
0
0
0
0
0
0
0
0
0
0
0
0
0
0
0
0
0
0
0
0
0
0
0
0
0
0
0
0
0
0
0
0
0
0
0
0
0
0
0
0
8.91224175e-10
6.037408573e-11
1.218032364e-11
0
0
0
0
0
0
0
0
0
0
0
0
0
0
0
0
0
0
0
0
0
0
0
0
0
0
0
0
0
0
0
0
0
0
0
0
0
0
0
0
0
0
0
0
0
0
0
0
0
0
0
0
0
0
0
0
0
5.463798847e-09
3.607824166e-10
7.863536666e-12
7.213101059e-12
0
0
0
0
0
0
0
0
0
0
0
0
0
0
0
0
0
0
0
0
0
0
0
0
0
0
0
0
0
0
0
0
0
0
0
0
0
0
0
0
0
0
0
0
0
0
0
0
0
0
0
0
0
0
0
0
1.203950103e-08
1.645838994e-09
2.078783693e-10
7.544172517e-11
5.540207894e-12
0
0
0
0
0
0
0
0
0
0
0
0
0
0
0
0
0
0
0
0
0
0
0
0
0
0
0
0
0
0
0
0
0
0
0
0
0
0
0
0
0
0
0
0
0
0
0
0
0
0
0
0
0
0
0
1.484458146e-08
4.315897734e-09
8.458416411e-10
8.858992404e-11
3.194136868e-11
1.33847602e-12
0
0
0
0
0
0
0
0
0
0
0
0
0
0
0
0
0
0
0
0
0
0
0
0
0
0
0
0
0
0
0
0
0
0
0
0
0
0
0
0
0
0
0
0
0
0
0
0
0
0
0
0
0
0
1.795313099e-08
5.080156199e-09
2.550810841e-09
3.670974252e-10
1.197842604e-10
2.392721088e-11
1.691556844e-13
0
0
0
0
0
0
0
0
0
0
0
0
0
0
0
0
0
0
0
0
0
0
0
0
0
0
0
0
0
0
0
0
0
0
0
0
0
0
0
0
0
0
0
0
0
0
0
0
0
0
0
0
0
4.925144801e-08
4.56213751e-09
5.782986036e-09
1.410153207e-09
1.638201215e-10
8.840118361e-11
8.131805702e-12
0
0
0
0
0
0
0
0
0
0
0
0
0
0
0
0
0
0
0
0
0
0
0
0
0
0
0
0
0
0
0
0
0
0
0
0
0
0
0
0
0
0
0
0
0
0
0
0
0
0
0
0
0
1.310807658e-07
9.978910323e-09
8.011296015e-09
4.095780717e-09
6.376097863e-10
6.37987289e-11
3.001968462e-11
1.940504492e-12
0
0
0
0
0
0
0
0
0
0
0
0
0
0
0
0
0
0
0
0
0
0
0
0
0
0
0
0
0
0
0
0
0
0
0
0
0
0
0
0
0
0
0
0
0
0
0
0
0
0
0
0
2.343311089e-07
2.075936452e-08
5.631212548e-09
1.105483061e-08
2.119621796e-09
2.476203159e-10
1.028163238e-10
1.184530159e-11
0
0
0
0
0
0
0
0
0
0
0
0
0
0
0
0
0
0
0
0
0
0
0
0
0
0
0
0
0
0
0
0
0
0
0
0
0
0
0
0
0
0
0
0
0
0
0
0
0
0
0
0
3.240773077e-07
3.330176994e-08
4.897408753e-09
2.407368383e-08
6.059619503e-09
7.786943977e-10
7.045829933e-11
3.090033765e-11
2.279283356e-12
0
0
0
0
0
0
0
0
0
0
0
0
0
0
0
0
0
0
0
0
0
0
0
0
0
0
0
0
0
0
0
0
0
0
0
0
0
0
0
0
0
0
0
0
0
0
0
0
0
0
0
4.302274563e-07
5.041639545e-08
7.443764219e-09
2.885270433e-08
1.509524805e-08
2.197372131e-09
2.268849539e-10
6.200077772e-11
6.400819484e-12
0
0
0
0
0
0
0
0
0
0
0
0
0
0
0
0
0
0
0
0
0
0
0
0
0
0
0
0
0
0
0
0
0
0
0
0
0
0
0
0
0
0
0
0
0
0
0
0
0
0
0
7.280355821e-07
9.475802665e-08
1.219685605e-08
1.889488971e-08
3.67228663e-08
5.768462044e-09
6.64233708e-10
1.559070595e-10
1.252084783e-11
1.905344079e-13
0
0
0
0
0
0
0
0
0
0
0
0
0
0
0
0
0
0
0
0
0
0
0
0
0
0
0
0
0
0
0
0
0
0
0
0
0
0
0
0
0
0
0
0
0
0
0
0
0
0
1.14248955e-06
1.67138256e-07
2.203793973e-08
1.373807663e-08
7.690775056e-08
1.214170939e-08
1.523510847e-09
3.345242356e-10
2.608668569e-11
8.476344748e-13
0
0
0
0
0
0
0
0
0
0
0
0
0
0
0
0
0
0
0
0
0
0
0
0
0
0
0
0
0
0
0
0
0
0
0
0
0
0
0
0
0
0
0
0
0
0
0
0
0
0
1.56922706e-06
2.542006458e-07
3.692831984e-08
1.813441213e-08
8.149643765e-08
1.599857268e-08
2.213394728e-09
3.245605032e-10
3.406020116e-11
1.240376486e-12
0
0
0
0
0
0
0
0
0
0
0
0
0
0
0
0
0
0
0
0
0
0
0
0
0
0
0
0
0
0
0
0
0
0
0
0
0
0
0
0
0
0
0
0
0
0
0
0
0
0
1.762506384e-06
3.06946154e-07
8.508459327e-08
3.195400172e-07
1.004605032e-07
1.508144066e-08
2.028708019e-09
2.608509408e-10
3.331641569e-11
8.456662477e-13
0
0
0
0
0
0
0
0
0
0
0
0
0
0
0
0
0
0
0
0
0
0
0
0
0
0
0
0
0
0
0
0
0
0
0
0
0
0
0
0
0
0
0
0
0
0
0
0
0
0
1.356254187e-06
2.291105745e-07
7.053550868e-08
3.060700438e-07
6.238768615e-08
8.829516023e-09
1.065014781e-09
6.880911785e-11
2.31236826e-11
1.824673138e-12
0
0
0
0
0
0
0
0
0
0
0
0
0
0
0
0
0
0
0
0
0
0
0
0
0
0
0
0
0
0
0
0
0
0
0
0
0
0
0
0
0
0
0
0
0
0
0
0
0
0
7.052216668e-07
2.588842947e-07
9.994311528e-07
1.781865674e-07
2.85247479e-08
3.635233663e-09
4.166081862e-10
8.188498958e-11
1.286224788e-11
1.089950609e-11
6.70987321e-13
0
0
0
0
0
0
0
0
0
0
0
0
0
0
0
0
0
0
0
0
0
0
0
0
0
0
0
0
0
0
0
0
0
0
0
0
0
0
0
0
0
0
0
0
0
0
0
0
0
5.864313547e-06
1.91694351e-06
3.967963647e-07
7.002235743e-08
1.005556375e-08
1.349774583e-09
1.973908619e-10
4.897694031e-11
1.374213618e-11
1.241551687e-11
8.551602867e-12
6.632245905e-13
0
0
0
0
0
0
0
0
0
0
0
0
0
0
0
0
0
0
0
0
0
0
0
0
0
0
0
0
0
0
0
0
0
0
0
0
0
0
0
0
0
0
0
0
0
0
0
0
1.120060901e-06
3.874467439e-07
9.456427986e-08
1.77860893e-08
2.944987507e-09
4.837237639e-10
7.871034559e-11
2.703292508e-11
1.110223348e-11
8.265168013e-12
1.313487748e-11
7.957093527e-12
5.877331501e-13
0
0
0
0
0
0
0
0
0
0
0
0
0
0
0
0
0
0
0
0
0
0
0
0
0
0
0
0
0
0
0
0
0
0
0
0
0
0
0
0
0
0
0
0
0
0
0
1.747742798e-07
6.629947005e-08
1.833127379e-08
4.143746093e-09
8.591727014e-10
1.754400708e-10
3.537863396e-11
1.053402498e-11
3.912493375e-12
3.425383715e-12
8.830128408e-13
1.191345922e-11
7.801998504e-12
5.59344056e-13
0
0
0
0
0
0
0
0
0
0
0
0
0
0
0
0
0
0
0
0
0
0
0
0
0
0
0
0
0
0
0
0
0
0
0
0
0
0
0
0
0
0
0
0
0
0
2.710712383e-08
1.144371401e-08
3.75422233e-09
1.068889539e-09
2.908666926e-10
7.95520308e-11
2.559918463e-11
6.363293782e-12
3.394355251e-12
2.824846743e-12
1.797943891e-12
1.347666332e-12
1.224937152e-11
6.896253174e-12
8.474320981e-13
0
0
0
0
0
0
0
0
0
0
0
0
0
0
0
0
0
0
0
0
0
0
0
0
0
0
0
0
0
0
0
0
0
0
0
0
0
0
0
0
0
0
0
0
0
5.116847813e-09
2.415812179e-09
9.560576289e-10
3.433184548e-10
1.191881291e-10
3.961286415e-11
1.316651173e-11
4.377302184e-12
3.579776523e-12
3.561455692e-12
2.949724562e-12
1.754501509e-12
2.407450949e-12
1.387504881e-11
8.897322987e-12
1.68054131e-12
0
0
0
0
0
0
0
0
0
0
0
0
0
0
0
0
0
0
0
0
0
0
0
0
0
0
0
0
0
0
0
0
0
0
0
0
0
0
0
0
0
0
0
0
1.273511362e-09
6.61575416e-10
2.958778508e-10
1.296264644e-10
5.195515743e-11
2.137690778e-11
9.002649285e-12
1.668232931e-12
2.063351586e-12
2.575641895e-12
1.564481393e-12
2.426957986e-12
1.843208499e-12
3.584667589e-12
1.204791384e-11
4.913416692e-12
7.931949419e-14
0
0
0
0
0
0
0
0
0
0
0
0
0
0
0
0
0
0
0
0
0
0
0
0
0
0
0
0
0
0
0
0
0
0
0
0
0
0
0
0
0
0
0
3.886461815e-10
2.224568229e-10
1.176886646e-10
5.887109973e-11
2.760096528e-11
1.263646817e-11
6.050539282e-12
2.664384458e-12
4.857350171e-13
2.302300561e-12
2.261758065e-12
1.371052169e-13
2.105062238e-12
2.527631104e-12
6.825698704e-12
1.145306028e-11
3.33861545e-12
0
0
0
0
0
0
0
0
0
0
0
0
0
0
0
0
0
0
0
0
0
0
0
0
0
0
0
0
0
0
0
0
0
0
0
0
0
0
0
0
0
0
0
1.479673753e-10
9.032428211e-11
5.197847803e-11
2.620692123e-11
1.400665576e-11
6.28250208e-12
3.605651531e-12
1.445987985e-12
0
2.068688138e-12
3.138154059e-12
3.041824588e-12
1.807973519e-12
1.530956919e-12
1.99927774e-12
1.671745423e-11
1.903745528e-11
5.72820318e-12
0
0
0
0
0
0
0
0
0
0
0
0
0
0
0
0
0
0
0
0
0
0
0
0
0
0
0
0
0
0
0
0
0
0
0
0
0
0
0
0
0
0
6.074462197e-11
3.858539865e-11
2.130813097e-11
1.284974168e-11
6.844471391e-12
4.212921216e-12
2.822142338e-12
1.892867396e-12
1.59672648e-12
2.506787518e-12
3.022440452e-12
3.419453669e-12
1.397201659e-12
2.793241799e-12
9.321404751e-13
2.206982516e-12
1.828823561e-11
2.197490503e-11
6.029470102e-12
0
0
0
0
0
0
0
0
0
0
0
0
0
0
0
0
0
0
0
0
0
0
0
0
0
0
0
0
0
0
0
0
0
0
0
0
0
0
0
0
0
2.4866421e-11
1.610384958e-11
1.065017504e-11
6.312571759e-12
3.067579583e-12
2.675006982e-12
2.345157787e-12
2.27296189e-12
1.885088391e-12
2.31479231e-12
2.84572956e-12
3.062437323e-12
2.836758389e-12
8.316295693e-13
3.495977326e-12
4.67888879e-12
1.135476086e-11
1.691812754e-11
7.399670537e-12
7.441231749e-13
0
0
0
0
0
0
0
0
0
0
0
0
0
0
0
0
0
0
0
0
0
0
0
0
0
0
0
0
0
0
0
0
0
0
0
0
0
0
0
0
1.111569166e-11
7.908091669e-12
5.127443729e-12
3.61159715e-12
2.521335259e-12
2.240901144e-12
2.088988876e-12
2.010909433e-12
2.212269028e-12
2.193710468e-12
2.431128929e-12
2.72378417e-12
3.305494427e-12
2.771792901e-12
1.898595821e-12
5.689055158e-13
1.682025308e-12
1.613266316e-11
2.013642075e-11
8.166117648e-12
2.603549831e-13
0
0
0
0
0
0
0
0
0
0
0
0
0
0
0
0
0
0
0
0
0
0
0
0
0
0
0
0
0
0
0
0
0
0
0
0
0
0
0
5.257107926e-12
3.944621807e-12
2.91195767e-12
2.374223713e-12
2.127119291e-12
2.012499482e-12
2.023871112e-12
2.093732673e-12
2.25206052e-12
2.337436706e-12
2.406891185e-12
2.500594928e-12
2.256481616e-12
1.910007995e-12
0
1.047223554e-12
0
0
1.920922102e-11
2.291646168e-11
8.311724581e-12
0
0
0
0
0
0
0
0
0
0
0
0
0
0
0
0
0
0
0
0
0
0
0
0
0
0
0
0
0
0
0
0
0
0
0
0
0
0
0
2.843050464e-12
2.315383204e-12
2.140977781e-12
2.013547416e-12
1.97980404e-12
2.069481327e-12
2.151152272e-12
2.290302221e-12
2.386288285e-12
2.433549807e-12
2.222645687e-12
1.987185079e-12
1.699558966e-12
1.575865355e-12
4.412911599e-13
1.033508134e-12
1.633120633e-12
3.827921568e-12
1.818636266e-11
2.348998472e-11
1.188314844e-11
2.718763256e-12
0
0
0
0
0
0
0
0
0
0
0
0
0
0
0
0
0
0
0
0
0
0
0
0
0
0
0
0
0
0
0
0
0
0
0
0
0
0
2.011958672e-12
1.916951901e-12
1.882800635e-12
1.940416547e-12
2.219018956e-12
2.27831436e-12
2.538793394e-12
2.420982047e-12
2.263729786e-12
2.182862657e-12
1.821496651e-12
1.546562487e-12
1.15766716e-12
1.074372299e-12
1.012733976e-12
0
1.108761772e-12
0
0
1.951069107e-11
2.386317124e-11
1.09274142e-11
1.743049189e-12
0
0
0
0
0
0
0
0
0
0
0
0
0
0
0
0
0
0
0
0
0
0
0
0
0
0
0
0
0
0
0
0
0
0
0
0
0
1.756262748e-12
1.82144301e-12
1.974973266e-12
2.012762505e-12
2.243794915e-12
2.209390346e-12
2.410583923e-12
2.337583416e-12
2.015260156e-12
1.78169396e-12
1.492590172e-12
1.338312044e-12
1.147434906e-12
1.144988962e-12
1.442446379e-12
1.367835254e-12
3.567561738e-12
6.241240524e-12
1.14705982e-11
2.507311666e-11
3.395442372e-11
3.379169523e-11
1.368680793e-11
1.442241136e-12
0
0
0
0
0
0
0
0
0
0
0
0
0
0
0
0
0
0
0
0
0
0
0
0
0
0
0
0
0
0
0
0
0
0
0
0
1.780671453e-12
2.006846722e-12
2.045441989e-12
1.957195821e-12
2.135133281e-12
2.212301017e-12
2.108951664e-12
2.089580785e-12
1.761514573e-12
1.439621207e-12
1.255494836e-12
1.134230474e-12
1.050686415e-12
1.095435289e-12
1.467024773e-12
2.07786099e-12
2.469747748e-12
3.412255588e-12
2.212817612e-12
0
2.259144484e-11
2.967365495e-11
1.607231994e-11
4.642098955e-12
0
0
0
0
0
0
0
0
0
0
0
0
0
0
0
0
0
0
0
0
0
0
0
0
0
0
0
0
0
0
0
0
0
0
0
0
1.812850336e-12
1.970035675e-12
1.930568584e-12
1.692062404e-12
1.572431369e-12
1.648271393e-12
1.645533098e-12
1.688915513e-12
1.418786854e-12
1.14060126e-12
1.012684104e-12
8.602832271e-13
8.210358889e-13
7.265674467e-13
9.337204457e-13
1.399102557e-12
1.182287442e-12
2.674962223e-12
3.389648336e-12
3.970191043e-12
9.152396332e-12
2.524561123e-11
2.730757605e-11
1.236823116e-11
2.361314829e-12
0
0
0
0
0
0
0
0
0
0
0
0
0
0
0
0
0
0
0
0
0
0
0
0
0
0
0
0
0
0
0
0
0
0
0
1.516772944e-12
1.569557895e-12
1.35854298e-12
1.1487326e-12
1.013853544e-12
1.1108853e-12
1.122263922e-12
1.203901483e-12
9.745802343e-13
7.174980632e-13
6.709153243e-13
5.613804882e-13
5.780112818e-13
4.6811232e-13
4.446970812e-13
4.905455058e-13
1.529299148e-13
1.347053809e-12
1.915724549e-12
7.401333946e-13
0
2.176179265e-11
3.045896761e-11
1.996049967e-11
8.113944986e-12
6.734113902e-14
0
0
0
0
0
0
0
0
0
0
0
0
0
0
0
0
0
0
0
0
0
0
0
0
0
0
0
0
0
0
0
0
0
0
1.027894131e-12
1.037646986e-12
7.86747346e-13
5.675806744e-13
4.24123853e-13
5.279616777e-13
5.563492855e-13
6.623291099e-13
4.649473464e-13
2.714880956e-13
2.947673705e-13
1.932795682e-13
2.175850374e-13
1.741052941e-13
2.340458278e-13
4.779997212e-13
8.161086268e-13
7.4921087e-13
1.79411245e-12
1.886516501e-12
1.114832347e-12
1.822176628e-13
2.3938574e-11
2.891784532e-11
1.505033862e-11
4.144667633e-12
0
0
0
0
0
0
0
0
0
0
0
0
0
0
0
0
0
0
0
0
0
0
0
0
0
0
0
0
0
0
0
0
0
0
5.716179246e-13
4.588925985e-13
3.194196521e-13
1.803517427e-13
1.595706275e-13
1.394628658e-13
1.09290765e-13
1.865154335e-13
1.033472234e-13
2.063412398e-14
8.350742615e-14
0
1.460874429e-14
2.347350496e-14
6.511622911e-14
3.38120755e-13
6.336138713e-13
3.205904133e-13
1.272884845e-12
1.813767873e-12
9.326428256e-13
0
2.474094621e-11
3.789021254e-11
3.841092857e-11
1.549405405e-11
2.797344834e-12
0
0
0
0
0
0
0
0
0
0
0
0
0
0
0
0
0
0
0
0
0
0
0
0
0
0
0
0
0
0
0
0
0
1.941028965e-13
1.272640142e-13
4.848917894e-14
0
5.2644926e-14
3.861271451e-14
8.978105255e-15
6.063880962e-14
1.138500137e-14
0
3.991860385e-14
0
0
7.719502756e-15
3.709339886e-15
1.02063818e-13
2.866068199e-13
1.570014037e-14
1.175596086e-12
2.299720511e-12
2.732832433e-12
2.274414087e-12
9.590763121e-14
2.667691239e-11
3.337275177e-11
1.863751223e-11
6.27056256e-12
0
0
0
0
0
0
0
0
0
0
0
0
0
0
0
0
0
0
0
0
0
0
0
0
0
0
0
0
0
0
0
0
0
3.512512709e-14
1.496259094e-14
0
3.356059598e-14
3.69787043e-14
2.995145349e-14
2.224300115e-15
4.874901188e-14
4.555604261e-15
0
3.042586803e-14
0
0
9.456535e-15
2.132699348e-14
1.518865484e-13
5.433035029e-13
1.07958265e-12
1.301741527e-12
2.148831794e-12
2.596674991e-12
1.547770647e-12
0
2.672696079e-11
4.061516483e-11
3.947031102e-11
1.836125813e-11
4.600643499e-12
0
0
0
0
0
0
0
0
0
0
0
0
0
0
0
0
0
0
0
0
0
0
0
0
0
0
0
0
0
0
0
0
0
0
0
4.92223724e-15
5.153533389e-15
0
0
4.68391988e-14
3.891752375e-15
0
2.293046384e-14
0
0
8.626072249e-15
1.386397786e-14
1.386926165e-13
5.747909797e-13
1.108434981e-12
1.137642954e-12
2.329598369e-12
3.339941409e-12
3.474804666e-12
4.290134833e-12
3.977131817e-12
2.885050941e-11
3.539129899e-11
2.06688224e-11
7.635778604e-12
1.463439327e-13
0
0
0
0
0
0
0
0
0
0
0
0
0
0
0
0
0
0
0
0
0
0
0
0
0
0
0
0
0
0
0
0
0
1.058131386e-14
7.212168989e-15
1.758977892e-14
0
0
8.962481994e-15
0
0
1.201039219e-14
0
0
7.296427685e-15
0
5.833784197e-14
3.005770413e-13
5.748483417e-13
4.732128846e-13
1.264089395e-12
2.485728947e-12
3.0788767e-12
1.962943339e-12
0
2.730045521e-11
4.111142806e-11
3.910058792e-11
1.918599169e-11
5.427288615e-12
0
0
0
0
0
0
0
0
0
0
0
0
0
0
0
0
0
0
0
0
0
0
0
0
0
0
0
0
0
0
0
0
9.618219027e-15
9.199620659e-15
3.123592537e-15
0
0
3.217798406e-14
4.259682323e-15
0
0
3.819873235e-15
0
1.883927161e-15
8.279182448e-15
9.377941298e-15
1.121402405e-13
3.746107904e-13
7.507013662e-13
1.229032718e-12
1.33407192e-12
1.874342814e-12
1.979123077e-12
6.719722244e-13
0
1.066407198e-11
3.07845298e-11
3.606490315e-11
2.146833512e-11
8.431048258e-12
5.691311601e-13
0
0
0
0
0
0
0
0
0
0
0
0
0
0
0
0
0
0
0
0
0
0
0
0
0
0
0
0
0
0
5.856312551e-15
5.68238138e-15
0
0
0
0
4.488252516e-14
4.444160008e-15
0
0
2.292180036e-15
0
7.332805612e-15
3.823434923e-14
7.116535522e-14
2.192708258e-13
4.359769598e-13
7.849475299e-13
1.247035373e-12
1.184795727e-12
1.56355192e-12
1.942332247e-12
2.440878045e-12
1.63305359e-12
0
2.801673839e-11
4.177450032e-11
3.979535818e-11
1.975304556e-11
5.744784725e-12
0
0
0
0
0
0
0
0
0
0
0
0
0
0
0
0
0
0
0
0
0
0
0
0
0
0
0
0
0
0
2.820260439e-15
0
0
0
0
1.164003056e-14
2.824715034e-15
0
0
0
3.533962149e-16
0
7.936711806e-15
3.545821088e-14
6.664468688e-14
1.486331932e-13
2.591056699e-13
4.280233698e-13
6.257377744e-13
4.675138441e-13
6.338369068e-13
1.222730767e-12
1.49921234e-12
5.869089161e-13
0
2.181070426e-11
3.584156677e-11
3.797453791e-11
2.212963293e-11
8.718003891e-12
8.011682872e-13
0
0
0
0
0
0
0
0
0
0
0
0
0
0
0
0
0
0
0
0
0
0
0
0
0
0
0
0
0
0
0
0
0
0
1.008193877e-14
1.092253953e-15
0
0
0
2.186659884e-16
0
5.087276925e-15
1.715984258e-14
2.321239879e-14
5.182864166e-14
7.368900307e-14
9.023972116e-14
9.722965951e-14
8.147498168e-14
4.356264671e-13
1.236031189e-12
1.768998226e-12
1.43381278e-12
1.625788467e-12
0
2.886185619e-11
4.241056178e-11
4.200889805e-11
1.948077997e-11
5.492514136e-12
0
0
0
0
0
0
0
0
0
0
0
0
0
0
0
0
0
0
0
0
0
0
0
0
0
0
0
0
0
0
0
0
0
1.132843867e-14
1.450454773e-15
4.519822077e-16
0
0
1.894161739e-16
5.234244844e-16
0
1.848578296e-14
5.803050576e-14
9.780685067e-14
1.644792116e-13
2.432604492e-13
3.147193256e-13
4.615906342e-13
5.312983475e-13
8.111600739e-13
1.285509814e-12
1.765611461e-12
2.128794972e-12
1.634551782e-12
0
2.456626945e-11
3.879198867e-11
3.96996992e-11
2.249851899e-11
8.785286963e-12
9.117574755e-13
0
0
0
0
0
0
0
0
0
0
0
0
0
0
0
0
0
0
0
0
0
0
0
0
0
0
0
0
0
0
0
0
1.772386631e-16
6.204958619e-16
7.175959941e-16
3.241685804e-16
2.006095674e-15
1.355568186e-14
2.945399041e-15
0
7.409595827e-14
1.597544595e-13
2.463712261e-13
3.672492376e-13
5.171158659e-13
6.744112654e-13
9.410687742e-13
1.150178756e-12
1.294195333e-12
1.452404941e-12
2.085318352e-12
2.467768529e-12
1.79490306e-12
1.145826432e-12
0
2.926955906e-11
4.107156253e-11
3.636767709e-11
1.745212861e-11
4.998245497e-12
0
0
0
0
0
0
0
0
0
0
0
0
0
0
0
0
0
0
0
0
0
0
0
0
0
0
0
0
0
0
0
0
6.827340204e-16
6.962083821e-16
0
0
4.268841767e-15
1.317061309e-14
2.904489194e-14
5.607690997e-14
1.403884249e-13
2.405831228e-13
3.43177848e-13
4.458562725e-13
5.662013461e-13
6.837596587e-13
8.809259505e-13
1.156054971e-12
1.108111887e-12
1.212102556e-12
1.83747854e-12
2.389370858e-12
2.782201714e-12
2.187414238e-12
0
2.636633848e-11
4.032769106e-11
3.969235171e-11
2.185413294e-11
8.313687592e-12
7.767114304e-13
0
0
0
0
0
0
0
0
0
0
0
0
0
0
0
0
0
0
0
0
0
0
0
0
0
0
0
0
0
0
0
7.82167827e-16
1.487193972e-15
8.823521039e-16
2.651582689e-15
1.187895157e-14
3.276527177e-14
5.934951812e-14
9.638187915e-14
1.705428774e-13
2.515273012e-13
3.22167939e-13
3.72027589e-13
4.091248858e-13
3.975841218e-13
4.087569002e-13
4.162847624e-13
3.951551721e-13
5.267975701e-13
9.670996283e-13
1.408830017e-12
1.724115946e-12
1.097666859e-12
0
9.309844949e-12
2.971578666e-11
3.59365929e-11
2.338325067e-11
1.121388778e-11
2.651012835e-12
0
0
0
0
0
0
0
0
0
0
0
0
0
0
0
0
0
0
0
0
0
0
0
0
0
0
0
0
0
1.027100477e-16
8.170591866e-16
1.91700693e-15
1.670323065e-15
9.34495522e-18
2.943110161e-15
1.627383073e-14
4.234938094e-14
6.880295524e-14
1.009882545e-13
1.600274817e-13
2.125547967e-13
2.409299489e-13
2.640741975e-13
2.624585006e-13
2.055061639e-13
1.393471674e-13
8.683460398e-14
4.802814412e-14
2.396712995e-13
5.10699225e-13
1.278147944e-12
1.723514146e-12
1.084521371e-12
5.202953459e-13
0
2.756677277e-11
4.047159741e-11
3.8122334e-11
2.039338806e-11
7.562061716e-12
6.160611333e-13
0
0
0
0
0
0
0
0
0
0
0
0
0
0
0
0
0
0
0