/*--------------------------------*- C++ -*----------------------------------*\
  =========                 |
  \\      /  F ield         | OpenFOAM: The Open Source CFD Toolbox
   \\    /   O peration     | Website:  https://openfoam.org
    \\  /    A nd           | Version:  10
     \\/     M anipulation  |
\*---------------------------------------------------------------------------*/
FoamFile
{
    format      ascii;
    class       volScalarField;
    location    "0.02499901733";
    object      C3H7;
}
// * * * * * * * * * * * * * * * * * * * * * * * * * * * * * * * * * * * * * //

dimensions      [0 0 0 0 0 0 0];

internalField   nonuniform List<scalar> 
5170
(
0
0
0
0
0
0
0
0
0
0
0
0
0
0
0
0
0
0
0
0
0
0
0
0
0
0
0
0
0
0
0
0
0
0
0
0
0
0
0
0
0
0
0
0
0
0
0
0
0
0
0
0
0
0
0
0
0
0
0
0
0
0
0
0
0
0
0
0
0
0
0
0
0
0
0
0
0
0
0
0
0
0
0
0
0
0
0
0
0
0
0
0
0
0
0
0
0
0
7.79781933e-13
4.488169341e-12
0
0
0
1.70434596e-37
3.104413071e-36
0
0
3.193046077e-38
0
0
0
0
0
0
0
0
0
0
0
0
0
0
0
0
0
0
0
0
0
0
0
0
0
0
0
0
0
0
0
0
0
0
0
0
0
0
0
0
0
0
0
0
0
0
0
0
0
0
0
0
0
0
0
0
0
0
0
0
0
0
0
0
0
0
0
0
0
0
0
0
0
0
0
0
0
0
0
0
0
0
2.301829458e-14
0
0
0
0
9.328989387e-12
1.596619729e-12
2.012449427e-13
3.507400282e-16
3.745807687e-18
0
6.637647806e-13
1.231923419e-11
1.865657628e-10
2.763911605e-09
3.230868435e-13
3.433348795e-12
4.455810852e-11
4.63077637e-10
4.318902694e-09
1.344456473e-12
9.535259126e-12
9.534894009e-11
7.685365313e-10
5.144351311e-09
3.542468487e-12
2.023816123e-11
1.591246697e-10
1.084448426e-09
5.684005155e-09
7.809286328e-12
3.886897834e-11
2.618498951e-10
1.43317486e-09
6.239055442e-09
1.553907057e-11
6.939724769e-11
3.901389088e-10
1.879739571e-09
7.204199931e-09
2.919887056e-11
1.194304001e-10
5.769045163e-10
2.497322915e-09
8.672504183e-09
5.272418684e-11
1.959546469e-10
8.483970839e-10
3.326848174e-09
1.045383529e-08
9.233710409e-11
3.129471473e-10
1.225732216e-09
4.316756262e-09
1.209805447e-08
1.566708997e-10
4.730341788e-10
1.733070158e-09
5.484770453e-09
1.367017906e-08
2.68078899e-10
7.304130601e-10
2.406117366e-09
6.848375571e-09
1.51793909e-08
4.318030414e-10
1.107820798e-09
3.260526475e-09
8.363602832e-09
1.635045911e-08
7.005276908e-10
1.631985333e-09
4.287282793e-09
9.899758622e-09
1.679810719e-08
1.16128281e-09
2.359763239e-09
5.523602617e-09
1.143457641e-08
1.651169381e-08
1.915300918e-09
3.396466243e-09
7.012702094e-09
1.285822401e-08
1.528559042e-08
2.994638097e-09
4.754606284e-09
8.729850441e-09
1.36904289e-08
1.329116364e-08
4.888984736e-09
6.911163981e-09
1.108164248e-08
1.473660754e-08
1.131064628e-08
7.919294093e-09
1.006371521e-08
1.386752952e-08
1.422037615e-08
9.322431136e-09
1.159654975e-08
1.304827633e-08
1.42348237e-08
1.150355626e-08
7.314568728e-09
1.310258579e-08
1.28834834e-08
1.120972191e-08
8.092131432e-09
5.479501896e-09
9.489052879e-09
8.790493127e-09
7.360605599e-09
5.74536927e-09
4.483110856e-09
6.161751581e-09
5.894888582e-09
5.394913422e-09
4.854682546e-09
4.441833908e-09
5.150610275e-09
5.110293774e-09
5.05136785e-09
5.025778668e-09
5.087712692e-09
4.902490957e-09
4.915909106e-09
4.945288621e-09
4.990209378e-09
5.041739042e-09
3.454473597e-09
3.434248538e-09
3.383999047e-09
3.297594147e-09
3.174790895e-09
1.701423926e-09
1.680889405e-09
1.632649212e-09
1.556833973e-09
1.456975482e-09
7.288119034e-10
7.185839705e-10
6.947011205e-10
6.581011267e-10
6.110122246e-10
2.957552731e-10
2.913817195e-10
2.812316574e-10
2.661209476e-10
2.473288223e-10
1.186678638e-10
1.171347145e-10
1.139022936e-10
1.085153182e-10
1.019141199e-10
4.741994346e-11
4.676902711e-11
4.548768577e-11
4.380371338e-11
4.129429377e-11
1.875087768e-11
1.873782434e-11
1.877920515e-11
1.820158232e-11
1.735813021e-11
8.412663459e-12
8.347452293e-12
8.191364243e-12
7.941174217e-12
7.618197974e-12
3.921150566e-12
3.895194662e-12
3.835956369e-12
3.748681164e-12
3.645207194e-12
2.042065373e-12
2.033768065e-12
2.013866475e-12
1.982382703e-12
1.935596435e-12
1.232019119e-12
1.229387558e-12
1.222949462e-12
1.213080962e-12
1.200386415e-12
8.075909563e-13
8.082408668e-13
8.090454084e-13
8.087185498e-13
8.135262727e-13
5.551508679e-13
5.563765212e-13
5.587632248e-13
5.621175222e-13
5.665361036e-13
3.456891548e-13
3.469395381e-13
3.494520544e-13
3.530671907e-13
3.577752803e-13
1.963846847e-13
1.972036065e-13
1.98823669e-13
2.011228253e-13
2.040846767e-13
9.165185361e-14
9.20582537e-14
9.276581009e-14
9.367125386e-14
9.477309592e-14
2.751662191e-14
2.758808517e-14
2.77398797e-14
2.793051665e-14
2.834797381e-14
5.825673483e-16
6.60205821e-16
8.41715829e-16
1.165316698e-15
1.698882907e-15
0
0
0
0
0
0
0
0
0
0
0
0
0
0
0
0
0
0
0
0
0
0
0
0
0
0
0
0
0
0
0
0
0
0
0
0
0
0
0
0
0
0
0
0
0
0
0
0
0
0
0
0
0
0
0
0
0
0
0
0
0
0
0
0
0
0
0
0
0
0
0
0
0
0
0
0
0
0
0
0
0
0
0
0
0
1.726260022e-17
1.750738459e-17
1.820961897e-17
1.937203797e-17
2.099684037e-17
4.20062757e-17
4.240149129e-17
4.322636493e-17
4.439172084e-17
4.580274042e-17
7.470844404e-17
7.469280101e-17
7.461321194e-17
7.438542684e-17
7.388704103e-17
9.566706633e-17
9.453958389e-17
9.206094523e-17
8.824524142e-17
8.291357468e-17
0
0
0
0
0
2.646986123e-17
2.495211782e-17
2.261309149e-17
2.038197005e-17
1.826043742e-17
1.603541792e-16
1.614732296e-16
1.663927605e-16
1.784578784e-16
1.937603338e-16
4.691533602e-16
4.668159016e-16
4.620003577e-16
4.551016292e-16
4.46216611e-16
5.267226786e-16
5.240416181e-16
5.183207252e-16
5.099562078e-16
4.992857595e-16
4.833751192e-16
4.824294876e-16
4.803775189e-16
4.773525213e-16
4.734973408e-16
5.008066652e-16
5.009153183e-16
5.010780825e-16
5.01064027e-16
5.00315124e-16
9.927454596e-09
1.324384094e-08
1.353982353e-08
1.27360085e-08
1.216202562e-08
1.268971165e-08
1.377378219e-08
1.470427756e-08
1.487572805e-08
1.477505716e-08
1.46507719e-08
1.42969081e-08
1.35398268e-08
1.255085607e-08
1.119952058e-08
9.623381819e-09
8.213309713e-09
6.871455783e-09
5.65892263e-09
4.497360043e-09
3.97922792e-09
4.304226005e-09
5.202741213e-09
5.06028419e-09
3.073401976e-09
1.385139759e-09
5.786374749e-10
2.348294981e-10
9.770035125e-11
3.954900032e-11
1.6749933e-11
7.397783977e-12
3.565038877e-12
1.920252565e-12
1.19426741e-12
8.217560412e-13
5.708357188e-13
3.622660693e-13
2.067688592e-13
9.595076218e-14
2.890765138e-14
2.283521359e-15
1.538158845e-17
0
0
0
0
0
0
0
0
0
0
0
0
0
0
0
0
2.222234702e-17
4.686101166e-17
7.328807708e-17
7.79345484e-17
0
1.401626009e-17
2.02303931e-16
4.385723403e-16
4.908083259e-16
4.70562238e-16
4.986951121e-16
2.765436053e-09
2.526320247e-10
8.883168596e-12
2.544379803e-13
1.755392669e-14
5.183171397e-09
2.165424325e-08
1.244183174e-09
3.857216876e-11
1.289467772e-12
6.04301924e-09
1.045192378e-08
1.02472322e-09
5.481040112e-11
7.1749958e-12
6.101991424e-09
5.218807041e-09
8.253342844e-10
6.957281719e-11
6.06814342e-12
6.388599482e-09
4.658014839e-09
1.260285882e-08
1.240272039e-09
8.790904015e-11
7.058931259e-09
5.780972571e-09
2.423998107e-08
3.002223049e-09
2.723587259e-10
7.85172365e-09
6.199529306e-09
2.336017005e-08
3.453558177e-09
3.924007957e-10
8.175335855e-09
5.472935609e-09
1.565153568e-08
2.685243435e-09
3.644406726e-10
7.910783653e-09
4.552762975e-09
1.000763299e-08
3.532617834e-09
5.275364011e-10
7.51945695e-09
4.102588688e-09
8.088835162e-09
8.378173842e-09
1.341088106e-09
7.135871149e-09
3.991539582e-09
7.683546691e-09
1.350607796e-08
2.389286533e-09
6.928939196e-09
3.910025325e-09
7.364877213e-09
1.64276763e-08
3.173366547e-09
6.624704283e-09
3.900520457e-09
6.606068649e-09
1.589559368e-08
3.439697468e-09
6.107849589e-09
3.752112957e-09
5.933527169e-09
1.432715796e-08
4.42908693e-09
5.528185942e-09
3.419829952e-09
5.485457182e-09
1.313936107e-08
6.347571052e-09
4.933489045e-09
3.138930858e-09
5.240391052e-09
1.230112796e-08
8.540232596e-09
4.46544342e-09
3.117022532e-09
5.301362215e-09
1.234761981e-08
9.517089785e-09
4.045669112e-09
3.38213752e-09
6.196890915e-09
1.424300853e-08
7.457498439e-09
3.853338482e-09
4.195567181e-09
9.249135896e-09
2.310807373e-08
6.246697651e-09
3.424011622e-09
3.625764696e-09
6.0265747e-09
1.211582317e-08
2.109772032e-08
3.388381243e-09
3.509328498e-09
4.720057483e-09
7.384735303e-09
1.177464337e-08
4.1347099e-09
4.620364588e-09
6.124674634e-09
9.039672371e-09
1.291700346e-08
5.360148273e-09
6.048958729e-09
7.025576883e-09
7.554460549e-09
6.780437243e-09
5.118176726e-09
5.028920801e-09
4.600745444e-09
3.805127168e-09
2.811268524e-09
2.976206489e-09
2.65133538e-09
2.18483081e-09
1.661641723e-09
1.171707177e-09
1.311043509e-09
1.126626931e-09
9.029760925e-10
6.790691235e-10
4.834238704e-10
5.453401153e-10
4.681253502e-10
3.784088345e-10
2.901953167e-10
2.149232771e-10
2.221551373e-10
1.939749774e-10
1.582358085e-10
1.224067829e-10
9.422796501e-11
9.365438077e-11
8.460070193e-11
7.0177366e-11
5.487373988e-11
4.172371316e-11
3.790168486e-11
3.357333902e-11
2.925022209e-11
2.432774391e-11
1.925337835e-11
1.619696178e-11
1.477731544e-11
1.315966061e-11
1.120112185e-11
9.08799478e-12
7.207305101e-12
6.632271385e-12
5.935843629e-12
5.325831112e-12
4.547875837e-12
3.499859192e-12
3.296526914e-12
3.040081565e-12
2.714096862e-12
2.409418665e-12
1.921303928e-12
1.852047591e-12
1.75146349e-12
1.647640593e-12
1.568771981e-12
1.194803884e-12
1.181655135e-12
1.16055101e-12
1.154396111e-12
1.13091809e-12
8.406772606e-13
8.529400441e-13
8.560997275e-13
8.564123856e-13
8.535076614e-13
5.809009887e-13
5.927518624e-13
6.024038249e-13
6.13175743e-13
6.160236428e-13
3.722630342e-13
3.859155104e-13
3.932589996e-13
3.974532004e-13
3.991016539e-13
2.132447786e-13
2.201761375e-13
2.238531792e-13
2.258130669e-13
2.265353153e-13
9.935442294e-14
1.028412077e-13
1.049703199e-13
1.065038619e-13
1.084822351e-13
3.06724481e-14
3.299796073e-14
3.504626458e-14
3.730395081e-14
3.720057561e-14
3.414782146e-15
5.966466838e-15
6.76921331e-15
6.423749796e-15
5.151827644e-15
6.519674263e-17
1.272727348e-16
1.004538982e-16
0
0
0
0
0
0
0
0
0
0
0
0
0
0
0
0
0
0
0
0
0
0
0
0
0
0
0
0
0
0
0
0
0
0
0
0
0
0
0
0
0
0
0
0
0
0
0
0
0
0
0
0
0
0
0
0
0
0
0
0
0
0
0
0
0
0
0
0
0
0
0
0
0
0
0
0
0
0
0
2.049313677e-18
9.595351635e-18
1.266626018e-17
2.380981577e-17
2.58316642e-17
2.606609679e-17
2.33342915e-17
1.94262395e-17
4.860231244e-17
5.056005068e-17
5.121028614e-17
5.008035692e-17
4.682405723e-17
7.228604672e-17
6.914702223e-17
6.367710427e-17
5.459800033e-17
3.671788728e-17
6.928007329e-17
4.412049381e-17
0
0
0
0
0
0
0
0
0
0
0
0
1.178390031e-17
2.072644076e-16
2.086272298e-16
2.129108169e-16
2.220123917e-16
2.169288339e-16
4.249572117e-16
4.025894428e-16
3.796007088e-16
3.56173265e-16
3.330948179e-16
4.774505317e-16
4.552697914e-16
4.329428252e-16
4.112670887e-16
3.907105517e-16
4.664544883e-16
4.588278091e-16
4.505843109e-16
4.396595591e-16
4.272267837e-16
4.959599868e-16
4.94224475e-16
4.92306184e-16
4.881053367e-16
4.829021453e-16
3.512939364e-14
4.153755297e-13
1.092659608e-13
5.819475616e-14
4.968292033e-14
4.773166141e-14
4.724827106e-14
4.716325773e-14
4.717324114e-14
4.719296955e-14
4.720497942e-14
4.720671984e-14
4.720135655e-14
4.719076943e-14
4.717928035e-14
4.718872192e-14
4.718483216e-14
4.717044306e-14
4.71773257e-14
4.718199729e-14
4.71823102e-14
4.71807942e-14
4.717873852e-14
4.717661636e-14
4.717462536e-14
4.717280953e-14
4.717114496e-14
4.716965138e-14
4.716828896e-14
4.716701297e-14
4.71658387e-14
4.716473846e-14
4.716371304e-14
4.716277197e-14
4.716192962e-14
4.716117638e-14
4.716051405e-14
4.715995992e-14
4.715947345e-14
4.715905092e-14
4.715864736e-14
4.7158275e-14
4.715794955e-14
4.715764495e-14
4.715740099e-14
4.715731861e-14
4.71573057e-14
4.715736642e-14
4.715744085e-14
4.715757394e-14
4.715772031e-14
4.715789875e-14
4.715809575e-14
4.715831226e-14
4.715799254e-14
4.715194095e-14
4.710471021e-14
4.685839746e-14
4.592133341e-14
4.473566158e-14
1.338757313e-12
3.651915502e-12
3.583941946e-13
1.189919637e-13
9.66916457e-14
9.256770686e-14
9.142722688e-14
9.104275478e-14
9.091855897e-14
9.087827457e-14
9.086766778e-14
9.086056417e-14
9.08487339e-14
9.082250937e-14
9.077932348e-14
9.074222263e-14
9.073392393e-14
9.076074967e-14
9.080009323e-14
9.082126033e-14
9.082821068e-14
9.082887901e-14
9.08275519e-14
9.082608715e-14
9.082521899e-14
9.082462463e-14
9.082409273e-14
9.082406255e-14
9.082408818e-14
9.082437607e-14
9.082486771e-14
9.08252212e-14
9.082586319e-14
9.082662382e-14
9.082757053e-14
9.082857629e-14
9.083002834e-14
9.08317748e-14
9.083341395e-14
9.083514434e-14
9.083692395e-14
9.083847657e-14
9.084025911e-14
9.084249618e-14
9.084423168e-14
9.084643885e-14
9.084786542e-14
9.084987921e-14
9.085163413e-14
9.085394051e-14
9.085593438e-14
9.085776182e-14
9.085965017e-14
9.086186274e-14
9.086329199e-14
9.086261866e-14
9.085554029e-14
9.085626967e-14
9.106709516e-14
9.150013829e-14
1.177883714e-11
0
3.990589006e-13
1.703779936e-13
1.292529145e-13
1.199388128e-13
1.16920595e-13
1.156775184e-13
1.151159426e-13
1.148642871e-13
1.147592778e-13
1.147174641e-13
1.146937014e-13
1.146575398e-13
1.145895822e-13
1.144996219e-13
1.144888526e-13
1.145771577e-13
1.146537475e-13
1.146933379e-13
1.147080536e-13
1.147121476e-13
1.147129304e-13
1.147131965e-13
1.147137976e-13
1.14714785e-13
1.147159999e-13
1.147176429e-13
1.147195146e-13
1.147217102e-13
1.147241838e-13
1.147268501e-13
1.147298682e-13
1.147330162e-13
1.14736454e-13
1.147400669e-13
1.147438979e-13
1.147478595e-13
1.147517598e-13
1.147557379e-13
1.147597952e-13
1.147638852e-13
1.147681294e-13
1.147726733e-13
1.147768485e-13
1.147813404e-13
1.14785224e-13
1.147895749e-13
1.147935675e-13
1.147978939e-13
1.148021064e-13
1.14806413e-13
1.14810295e-13
1.14814846e-13
1.148193627e-13
1.148280439e-13
1.148576687e-13
1.14990453e-13
1.154658181e-13
1.160229619e-13
3.897265877e-11
1.370011028e-11
3.976411429e-12
6.136798772e-13
2.184990204e-13
1.532017871e-13
1.357825269e-13
1.293168575e-13
1.265404892e-13
1.25331117e-13
1.248268096e-13
1.246350499e-13
1.245657194e-13
1.245213237e-13
1.244504567e-13
1.243450943e-13
1.243516624e-13
1.244963312e-13
1.246103171e-13
1.24673049e-13
1.247022845e-13
1.247168321e-13
1.247262215e-13
1.247340544e-13
1.247414776e-13
1.247487231e-13
1.247558151e-13
1.24762864e-13
1.24769835e-13
1.247767763e-13
1.247836716e-13
1.24790525e-13
1.247974418e-13
1.248043405e-13
1.24811217e-13
1.248181082e-13
1.248249665e-13
1.248317117e-13
1.248382556e-13
1.248447092e-13
1.24851081e-13
1.248573429e-13
1.248635462e-13
1.248697737e-13
1.24875812e-13
1.248818811e-13
1.248875954e-13
1.248933857e-13
1.248988519e-13
1.24904447e-13
1.249098546e-13
1.249153308e-13
1.249204036e-13
1.249260443e-13
1.249323568e-13
1.249451103e-13
1.249819117e-13
1.251062042e-13
1.254318948e-13
1.257526174e-13
1.796763527e-11
6.067150023e-11
1.113524283e-11
3.947141427e-12
7.318008493e-13
2.689392326e-13
1.74537755e-13
1.458792036e-13
1.350220025e-13
1.306057645e-13
1.288259778e-13
1.281511251e-13
1.279176049e-13
1.278292161e-13
1.277573213e-13
1.276630237e-13
1.277018654e-13
1.27892295e-13
1.280399498e-13
1.281259466e-13
1.281712033e-13
1.281976726e-13
1.282167602e-13
1.282328943e-13
1.28247594e-13
1.28261326e-13
1.282742774e-13
1.282865919e-13
1.282983414e-13
1.283096026e-13
1.283204122e-13
1.283308159e-13
1.283408914e-13
1.283506516e-13
1.283601011e-13
1.283692878e-13
1.283781972e-13
1.283868038e-13
1.283950901e-13
1.284031218e-13
1.284109131e-13
1.284184455e-13
1.28425747e-13
1.284328694e-13
1.2843976e-13
1.284464957e-13
1.284529793e-13
1.28459322e-13
1.284653872e-13
1.284713781e-13
1.284771555e-13
1.284828821e-13
1.284883413e-13
1.284942132e-13
1.285011922e-13
1.285141503e-13
1.285455941e-13
1.286289008e-13
1.287998046e-13
1.289467741e-13
2.355175344e-11
1.300956565e-10
5.782473334e-11
2.017894324e-11
2.836044905e-12
5.813667362e-13
2.516222167e-13
1.720585571e-13
1.453045161e-13
1.350103621e-13
1.309743293e-13
1.294570575e-13
1.289259464e-13
1.287415728e-13
1.286468986e-13
1.28559985e-13
1.286272961e-13
1.288510001e-13
1.290283181e-13
1.291375158e-13
1.29198989e-13
1.292368381e-13
1.292644185e-13
1.292872767e-13
1.293075188e-13
1.293259565e-13
1.293429848e-13
1.293588552e-13
1.293737281e-13
1.293877365e-13
1.294009736e-13
1.294135225e-13
1.294254643e-13
1.294368566e-13
1.294477369e-13
1.294581546e-13
1.294681317e-13
1.294776871e-13
1.294868405e-13
1.294956369e-13
1.295040988e-13
1.295122273e-13
1.295200445e-13
1.29527571e-13
1.295347952e-13
1.295417662e-13
1.295484873e-13
1.295549993e-13
1.295612584e-13
1.29567327e-13
1.295731657e-13
1.295788778e-13
1.295844408e-13
1.295903864e-13
1.295977595e-13
1.296104879e-13
1.296371247e-13
1.296933989e-13
1.297848796e-13
1.298522144e-13
2.705357154e-11
4.249286735e-11
1.843537602e-10
3.714074066e-11
1.031387444e-11
1.639200367e-12
4.518089224e-13
2.284841886e-13
1.646499462e-13
1.419663016e-13
1.334691996e-13
1.303616604e-13
1.292892154e-13
1.289304706e-13
1.287860408e-13
1.28695218e-13
1.287794111e-13
1.290247335e-13
1.292272113e-13
1.293600873e-13
1.294395669e-13
1.294900153e-13
1.295264836e-13
1.295558815e-13
1.295811338e-13
1.296035654e-13
1.296238688e-13
1.296424697e-13
1.296596572e-13
1.296756418e-13
1.296905798e-13
1.297045998e-13
1.297178097e-13
1.297302949e-13
1.297421212e-13
1.297533501e-13
1.297640273e-13
1.297741944e-13
1.297838902e-13
1.297931553e-13
1.298020207e-13
1.298105049e-13
1.298186346e-13
1.298264309e-13
1.298339001e-13
1.298410643e-13
1.298479375e-13
1.298545567e-13
1.298609311e-13
1.298670808e-13
1.298730036e-13
1.298787724e-13
1.29884482e-13
1.298906801e-13
1.298986672e-13
1.299120383e-13
1.299372496e-13
1.299820704e-13
1.300424766e-13
1.300792886e-13
2.98163947e-11
2.433416288e-11
2.716238185e-10
1.28364652e-10
4.447195635e-11
7.837244341e-12
1.219442161e-12
3.794793396e-13
2.059496551e-13
1.549368435e-13
1.375882373e-13
1.315882784e-13
1.295938058e-13
1.289554614e-13
1.287327199e-13
1.286273479e-13
1.287192076e-13
1.289768229e-13
1.29197806e-13
1.293522079e-13
1.294502765e-13
1.295147501e-13
1.295614467e-13
1.295983484e-13
1.296292117e-13
1.296559463e-13
1.296796466e-13
1.297009964e-13
1.297204559e-13
1.297383456e-13
1.297549014e-13
1.297703072e-13
1.297847081e-13
1.29798222e-13
1.298109422e-13
1.298229493e-13
1.298343094e-13
1.298450803e-13
1.298553123e-13
1.2986505e-13
1.298743315e-13
1.298831856e-13
1.298916438e-13
1.298997356e-13
1.299074838e-13
1.299149042e-13
1.299220017e-13
1.299287978e-13
1.299353157e-13
1.299415855e-13
1.299476395e-13
1.299535655e-13
1.299595419e-13
1.299662166e-13
1.299751384e-13
1.29989897e-13
1.30015785e-13
1.300569662e-13
1.301060985e-13
1.301305809e-13
4.908493116e-11
1.172058618e-11
9.870866776e-11
3.478574315e-10
7.494591061e-11
2.500348343e-11
3.338861815e-12
6.949337817e-13
2.793156619e-13
1.758622632e-13
1.437769963e-13
1.333040602e-13
1.299771072e-13
1.289627481e-13
1.286417214e-13
1.285164794e-13
1.286109271e-13
1.288765276e-13
1.29110961e-13
1.292827363e-13
1.293975987e-13
1.294761003e-13
1.295339202e-13
1.295794596e-13
1.29616943e-13
1.296487469e-13
1.296763824e-13
1.297008578e-13
1.297228572e-13
1.29742852e-13
1.297611807e-13
1.29778096e-13
1.297937931e-13
1.298084273e-13
1.298221229e-13
1.29834984e-13
1.298470955e-13
1.298585308e-13
1.298693511e-13
1.298796095e-13
1.298893526e-13
1.298986199e-13
1.299074478e-13
1.299158701e-13
1.299239164e-13
1.299316118e-13
1.299389717e-13
1.299460153e-13
1.299527592e-13
1.299592332e-13
1.299654881e-13
1.299716542e-13
1.299779969e-13
1.299853072e-13
1.29995375e-13
1.30011795e-13
1.300390055e-13
1.300791891e-13
1.301235115e-13
1.301412086e-13
1.406717481e-10
1.445546725e-11
5.279496882e-11
4.648661497e-10
2.105759712e-10
3.315587822e-11
9.602621189e-12
1.526030108e-12
4.25761069e-13
2.095469064e-13
1.523019958e-13
1.353953232e-13
1.303970629e-13
1.289634906e-13
1.285433556e-13
1.283991579e-13
1.284945977e-13
1.287666573e-13
1.290118541e-13
1.291978975e-13
1.293273185e-13
1.29418882e-13
1.294879012e-13
1.295427666e-13
1.295877615e-13
1.296254573e-13
1.296576764e-13
1.296857536e-13
1.297106407e-13
1.297330017e-13
1.297533054e-13
1.297718926e-13
1.297890209e-13
1.298048907e-13
1.298196614e-13
1.298334636e-13
1.29846403e-13
1.298585699e-13
1.298700392e-13
1.298808763e-13
1.298911374e-13
1.299008702e-13
1.299101174e-13
1.299189174e-13
1.299273028e-13
1.299353043e-13
1.299429458e-13
1.299502537e-13
1.299572502e-13
1.299639688e-13
1.2997047e-13
1.299769251e-13
1.299836938e-13
1.299917374e-13
1.300030528e-13
1.300211148e-13
1.300496068e-13
1.300893461e-13
1.301307341e-13
1.301431157e-13
2.87492851e-10
2.714391985e-11
2.437830876e-11
2.165790665e-10
4.895216292e-10
9.364665207e-11
2.742115037e-11
3.74490764e-12
7.129630503e-13
2.605888077e-13
1.627528738e-13
1.37491544e-13
1.307219462e-13
1.289261708e-13
1.284351934e-13
1.282800177e-13
1.283773415e-13
1.286556704e-13
1.289102809e-13
1.291086286e-13
1.292508638e-13
1.293543888e-13
1.294342703e-13
1.29498788e-13
1.295520171e-13
1.295964246e-13
1.296339473e-13
1.296661808e-13
1.296943599e-13
1.297193809e-13
1.297418792e-13
1.297623088e-13
1.297810034e-13
1.297982178e-13
1.298141515e-13
1.298289652e-13
1.298427897e-13
1.298557347e-13
1.298678916e-13
1.298793391e-13
1.298901446e-13
1.299003649e-13
1.299100496e-13
1.299192429e-13
1.299279818e-13
1.299363023e-13
1.299442327e-13
1.299518052e-13
1.299590512e-13
1.299660184e-13
1.29972787e-13
1.299795749e-13
1.299868397e-13
1.299957041e-13
1.300083025e-13
1.300278851e-13
1.300574279e-13
1.300966782e-13
1.301356871e-13
1.301432182e-13
4.282388567e-10
4.489018151e-11
1.585749501e-11
1.402952994e-10
8.348514301e-10
2.216443579e-10
3.98150196e-11
8.391202162e-12
1.260997435e-12
3.267959326e-13
1.71507823e-13
1.384939171e-13
1.307242682e-13
1.28824902e-13
1.28322843e-13
1.281657351e-13
1.282647998e-13
1.285480593e-13
1.288100716e-13
1.290185384e-13
1.291717787e-13
1.292859844e-13
1.293760173e-13
1.294500797e-13
1.295119481e-13
1.295637528e-13
1.296073013e-13
1.296443031e-13
1.296762355e-13
1.297042464e-13
1.297291748e-13
1.297516187e-13
1.297720099e-13
1.2979067e-13
1.298078457e-13
1.298237334e-13
1.298384924e-13
1.298522549e-13
1.298651313e-13
1.298772147e-13
1.298885844e-13
1.298993069e-13
1.299094396e-13
1.299190335e-13
1.299281317e-13
1.299367769e-13
1.299450017e-13
1.299528438e-13
1.299603421e-13
1.299675597e-13
1.299746085e-13
1.299817654e-13
1.299895989e-13
1.299993662e-13
1.300132362e-13
1.300341865e-13
1.300645361e-13
1.301031522e-13
1.301399721e-13
1.301425182e-13
5.175055535e-10
6.168300884e-11
1.667745239e-11
1.11072301e-10
7.996624793e-10
4.393682251e-10
6.863453373e-11
1.532720656e-11
2.040508713e-12
3.97144421e-13
1.751347071e-13
1.378596529e-13
1.303939161e-13
1.286908739e-13
1.282254772e-13
1.280685793e-13
1.281672554e-13
1.284522065e-13
1.287177676e-13
1.289326777e-13
1.290940571e-13
1.292168647e-13
1.293156168e-13
1.293984013e-13
1.29468693e-13
1.295281613e-13
1.295782543e-13
1.296205796e-13
1.296567338e-13
1.296880849e-13
1.297156895e-13
1.297403191e-13
1.297625289e-13
1.29782725e-13
1.298012128e-13
1.298182306e-13
1.298339694e-13
1.29848586e-13
1.298622102e-13
1.298749512e-13
1.298869008e-13
1.298981365e-13
1.299087247e-13
1.299187244e-13
1.299281864e-13
1.299371592e-13
1.299456807e-13
1.299537947e-13
1.299615487e-13
1.299690272e-13
1.299763802e-13
1.299839459e-13
1.29992406e-13
1.300031263e-13
1.300182296e-13
1.300403885e-13
1.300713114e-13
1.301091492e-13
1.301438385e-13
1.30140741e-13
7.220607567e-10
9.56943587e-11
1.996606643e-11
8.580336957e-11
7.028125049e-10
8.564963288e-10
1.400577976e-10
3.244340593e-11
3.237344526e-12
4.802378628e-13
1.759160883e-13
1.365368427e-13
1.299885937e-13
1.285708467e-13
1.281507952e-13
1.279953147e-13
1.280938915e-13
1.283779475e-13
1.286424963e-13
1.288588378e-13
1.290240737e-13
1.291522193e-13
1.292571784e-13
1.293468253e-13
1.294243515e-13
1.294909478e-13
1.295475539e-13
1.29595449e-13
1.296361532e-13
1.296711412e-13
1.297016492e-13
1.297286244e-13
1.297527618e-13
1.297745683e-13
1.297944205e-13
1.298126068e-13
1.298293548e-13
1.29844848e-13
1.298592371e-13
1.298726481e-13
1.298851863e-13
1.298969415e-13
1.299079898e-13
1.299183989e-13
1.299282271e-13
1.299375278e-13
1.299463461e-13
1.299547331e-13
1.29962748e-13
1.299705028e-13
1.29978191e-13
1.299862119e-13
1.299953504e-13
1.300070461e-13
1.300233315e-13
1.300465488e-13
1.300778384e-13
1.301147839e-13
1.30147332e-13
1.301378658e-13
1.124388059e-09
1.660705251e-10
3.24730033e-11
9.781032352e-11
9.104594762e-10
1.394491662e-09
2.431486525e-10
5.947924392e-11
5.583159402e-12
6.13873977e-13
1.770130065e-13
1.356192712e-13
1.29879523e-13
1.285907168e-13
1.281497454e-13
1.279720269e-13
1.280616515e-13
1.283377452e-13
1.2859431e-13
1.288056114e-13
1.289693327e-13
1.290984634e-13
1.292060836e-13
1.292996975e-13
1.293822125e-13
1.294543985e-13
1.295166582e-13
1.295697874e-13
1.296150174e-13
1.296537506e-13
1.296872955e-13
1.297167289e-13
1.297428753e-13
1.297663466e-13
1.297875986e-13
1.298069761e-13
1.298247476e-13
1.298411263e-13
1.298562852e-13
1.298703682e-13
1.298834955e-13
1.298957695e-13
1.299072771e-13
1.299180943e-13
1.299282863e-13
1.299379124e-13
1.299470261e-13
1.299556879e-13
1.299639731e-13
1.299720252e-13
1.299800862e-13
1.299886165e-13
1.299984838e-13
1.300111571e-13
1.300285575e-13
1.300526899e-13
1.300841705e-13
1.301201481e-13
1.301505971e-13
1.301349473e-13
1.647528175e-09
2.697903959e-10
6.221660406e-11
1.887515102e-10
1.675858073e-09
1.63862892e-09
2.988875553e-10
6.633863644e-11
7.886091369e-12
7.922299942e-13
1.837159089e-13
1.363643194e-13
1.303022913e-13
1.288017058e-13
1.282412148e-13
1.280098425e-13
1.280795183e-13
1.28338548e-13
1.285797376e-13
1.287794202e-13
1.289358833e-13
1.29061165e-13
1.291673762e-13
1.292614506e-13
1.293459751e-13
1.294213858e-13
1.294876233e-13
1.295449608e-13
1.295941909e-13
1.296364562e-13
1.296729831e-13
1.297048814e-13
1.297330576e-13
1.297582116e-13
1.297808735e-13
1.298014452e-13
1.298202378e-13
1.298374961e-13
1.298534175e-13
1.298681649e-13
1.298818737e-13
1.298946589e-13
1.299066182e-13
1.299178359e-13
1.299283842e-13
1.299383296e-13
1.299477352e-13
1.299566736e-13
1.299652398e-13
1.299736115e-13
1.299820797e-13
1.299911656e-13
1.300017975e-13
1.300154384e-13
1.300338751e-13
1.300587766e-13
1.300902871e-13
1.301252417e-13
1.301536894e-13
1.301324367e-13
1.948376881e-09
3.560457503e-10
2.006735716e-10
1.104946916e-09
6.068557611e-09
1.503160706e-09
2.688348752e-10
5.757238338e-11
9.058722885e-12
9.427987773e-13
1.953751676e-13
1.38014082e-13
1.307354976e-13
1.289636693e-13
1.283250274e-13
1.280692017e-13
1.281324775e-13
1.283754435e-13
1.285977999e-13
1.287810183e-13
1.289254133e-13
1.290426181e-13
1.291436848e-13
1.292348103e-13
1.293182251e-13
1.293941369e-13
1.294621828e-13
1.295221982e-13
1.295744703e-13
1.296197335e-13
1.296589756e-13
1.296932175e-13
1.297233705e-13
1.297501814e-13
1.297742358e-13
1.297959864e-13
1.298157847e-13
1.298339078e-13
1.298505778e-13
1.298659769e-13
1.298802556e-13
1.298935415e-13
1.299059423e-13
1.299175509e-13
1.299284476e-13
1.299387069e-13
1.299484023e-13
1.299576209e-13
1.299664821e-13
1.299752e-13
1.299841134e-13
1.299938003e-13
1.300052324e-13
1.300198419e-13
1.300392556e-13
1.300648129e-13
1.300962382e-13
1.301301508e-13
1.301567157e-13
1.301304507e-13
1.553812739e-09
3.404736666e-10
5.188031241e-10
3.330107388e-09
4.61088199e-09
8.803531785e-10
1.599193849e-10
3.454185673e-11
9.082348156e-12
1.564411993e-12
3.022902439e-13
1.539681842e-13
1.338233961e-13
1.298283905e-13
1.286634393e-13
1.282451548e-13
1.282522397e-13
1.284555886e-13
1.28647005e-13
1.288067956e-13
1.289345925e-13
1.290402574e-13
1.291330251e-13
1.292179679e-13
1.292968753e-13
1.293699668e-13
1.294371279e-13
1.294982378e-13
1.295527007e-13
1.296005216e-13
1.296422857e-13
1.296788247e-13
1.29710983e-13
1.297395088e-13
1.2976502e-13
1.297880097e-13
1.298088676e-13
1.298279027e-13
1.298453624e-13
1.298614489e-13
1.298763284e-13
1.298901416e-13
1.299030069e-13
1.299150267e-13
1.299262907e-13
1.299368835e-13
1.299468901e-13
1.299564168e-13
1.299656139e-13
1.29974741e-13
1.299841878e-13
1.299945962e-13
1.300069869e-13
1.300227643e-13
1.300433931e-13
1.300698861e-13
1.301015423e-13
1.301347317e-13
1.301596685e-13
1.301287851e-13
1.541478798e-09
1.368920835e-09
6.519964228e-09
1.20358953e-08
2.632322695e-09
4.409308249e-10
8.705771182e-11
2.652186841e-11
7.925754613e-12
3.102205336e-12
7.778412471e-13
2.423711248e-13
1.494624877e-13
1.333357379e-13
1.297633128e-13
1.2870841e-13
1.28500601e-13
1.285964797e-13
1.287265518e-13
1.288488219e-13
1.289525172e-13
1.290408609e-13
1.291187237e-13
1.291886574e-13
1.292515953e-13
1.29308971e-13
1.293647509e-13
1.294275038e-13
1.294865337e-13
1.295386504e-13
1.295840979e-13
1.296238633e-13
1.296588627e-13
1.296898668e-13
1.297175228e-13
1.297423643e-13
1.29764824e-13
1.297852492e-13
1.298039202e-13
1.298210656e-13
1.298368739e-13
1.298515041e-13
1.298650902e-13
1.298777494e-13
1.298895855e-13
1.299006997e-13
1.299111984e-13
1.299212222e-13
1.299309801e-13
1.29940828e-13
1.299512603e-13
1.299630918e-13
1.299775681e-13
1.299963057e-13
1.300209085e-13
1.300523664e-13
1.300896687e-13
1.30128471e-13
1.30157598e-13
1.301251033e-13
2.441007791e-08
1.624910829e-08
1.991380882e-08
5.728959767e-09
1.103876345e-09
2.195878737e-10
5.75513935e-11
2.072898827e-11
7.676562781e-12
3.692908709e-12
1.861101097e-12
6.55611476e-13
2.392440836e-13
1.502592701e-13
1.336274646e-13
1.299307147e-13
1.29021741e-13
1.288409513e-13
1.28838597e-13
1.288880797e-13
1.289436411e-13
1.289900767e-13
1.290217124e-13
1.290347029e-13
1.290305504e-13
1.289942938e-13
1.290466908e-13
1.29179157e-13
1.292709951e-13
1.29335686e-13
1.29384954e-13
1.294258449e-13
1.294613318e-13
1.294926788e-13
1.295206132e-13
1.295456785e-13
1.295683118e-13
1.295888683e-13
1.29607636e-13
1.296248503e-13
1.296407066e-13
1.29655369e-13
1.296689766e-13
1.296816511e-13
1.296935011e-13
1.297046339e-13
1.297151654e-13
1.297252489e-13
1.297351126e-13
1.297451177e-13
1.297557556e-13
1.297678065e-13
1.297823945e-13
1.298009035e-13
1.298245791e-13
1.298540267e-13
1.298880269e-13
1.299226074e-13
1.299474565e-13
1.299098919e-13
1.77014694e-08
1.951051925e-08
7.852858735e-09
2.022337e-09
4.639861813e-10
1.220368354e-10
3.889958372e-11
1.666190689e-11
7.083580214e-12
3.561715664e-12
2.624107185e-12
1.542374527e-12
6.217266623e-13
2.331957418e-13
1.484448199e-13