/*--------------------------------*- C++ -*----------------------------------*\
  =========                 |
  \\      /  F ield         | OpenFOAM: The Open Source CFD Toolbox
   \\    /   O peration     | Website:  https://openfoam.org
    \\  /    A nd           | Version:  10
     \\/     M anipulation  |
\*---------------------------------------------------------------------------*/
FoamFile
{
    format      ascii;
    class       volScalarField;
    location    "0.02499901733";
    object      C3H7_0;
}
// * * * * * * * * * * * * * * * * * * * * * * * * * * * * * * * * * * * * * //

dimensions      [0 0 0 0 0 0 0];

internalField   nonuniform List<scalar> 
5170
(
0
0
0
0
0
0
0
0
0
0
0
0
0
0
0
0
0
0
0
0
0
0
0
0
0
0
0
0
0
0
0
0
0
0
0
0
0
0
0
0
0
0
0
0
0
0
0
0
0
0
0
0
0
0
0
0
0
0
0
0
0
0
0
0
0
0
0
0
0
0
0
0
0
0
0
0
0
0
0
0
0
0
0
0
0
0
0
0
0
0
0
0
0
0
0
0
0
2.292726101e-15
7.807619869e-13
4.489000999e-12
0
2.412428711e-38
0
5.546930213e-37
3.270587681e-36
0
0
0
0
0
0
0
0
0
0
0
0
0
0
0
0
0
0
0
0
0
0
0
0
0
0
0
0
0
0
0
0
0
0
0
0
0
0
0
0
0
0
0
0
0
0
0
0
0
0
0
0
0
0
0
0
0
0
0
0
0
0
0
0
0
0
0
0
0
0
0
0
0
0
0
0
0
0
0
0
0
0
0
0
0
2.272135586e-14
0
0
0
0
9.333565454e-12
1.602417536e-12
2.025691343e-13
1.14427291e-16
0
0
6.643678725e-13
1.232869683e-11
1.868825127e-10
2.763711768e-09
3.238628885e-13
3.43300445e-12
4.455644836e-11
4.634124887e-10
4.319512618e-09
1.345763786e-12
9.517506151e-12
9.315863358e-11
7.686600686e-10
5.144737807e-09
3.544767427e-12
2.025217949e-11
1.597150846e-10
1.084060153e-09
5.683254559e-09
7.819915775e-12
3.891928176e-11
2.614830898e-10
1.43336694e-09
6.237496224e-09
1.555538107e-11
6.951989674e-11
3.906670119e-10
1.88067643e-09
7.203589293e-09
2.91990275e-11
1.19480477e-10
5.772003443e-10
2.498811429e-09
8.677980673e-09
5.277016153e-11
1.967635672e-10
8.482756509e-10
3.327627605e-09
1.046815133e-08
9.227731596e-11
3.141356987e-10
1.225171106e-09
4.315260341e-09
1.209041098e-08
1.565331569e-10
4.728771915e-10
1.732565865e-09
5.484571972e-09
1.366911368e-08
2.679982691e-10
7.303370584e-10
2.406072122e-09
6.849021427e-09
1.518420492e-08
4.318474783e-10
1.107797569e-09
3.260567763e-09
8.364129921e-09
1.635487974e-08
6.997493759e-10
1.63116041e-09
4.286083154e-09
9.896991305e-09
1.679020721e-08
1.16188445e-09
2.360163378e-09
5.52341689e-09
1.143223985e-08
1.650682884e-08
1.914990103e-09
3.396091288e-09
7.013106466e-09
1.285849918e-08
1.528064687e-08
2.996951819e-09
4.75883775e-09
8.739588071e-09
1.3709934e-08
1.329666602e-08
4.896580714e-09
6.919729952e-09
1.109364783e-08
1.47494613e-08
1.131563151e-08
7.92052384e-09
1.00665345e-08
1.387228663e-08
1.423946637e-08
9.334684792e-09
1.159408289e-08
1.304576417e-08
1.422552047e-08
1.148006702e-08
7.28465782e-09
1.308433089e-08
1.286508782e-08
1.119517655e-08
8.083439614e-09
5.469873935e-09
9.47672743e-09
8.792569544e-09
7.384203252e-09
5.780530365e-09
4.518194733e-09
6.201748307e-09
5.942279446e-09
5.45362318e-09
4.923191775e-09
4.515401872e-09
5.209624859e-09
5.169928877e-09
5.118779628e-09
5.100048387e-09
5.166167234e-09
4.895313282e-09
4.906053213e-09
4.931535265e-09
4.966589892e-09
5.003557881e-09
3.379428601e-09
3.35827995e-09
3.305917428e-09
3.217265363e-09
3.090485002e-09
1.648739572e-09
1.628395699e-09
1.58064465e-09
1.506425878e-09
1.408632233e-09
7.045399253e-10
6.94561812e-10
6.713618944e-10
6.356325937e-10
5.903193086e-10
2.858075267e-10
2.815852038e-10
2.718590752e-10
2.575610036e-10
2.393559296e-10
1.1539491e-10
1.138408662e-10
1.102816704e-10
1.051245949e-10
9.886080786e-11
4.592578198e-11
4.542439863e-11
4.415133113e-11
4.224988529e-11
3.985419664e-11
1.832216553e-11
1.841420401e-11
1.829060985e-11
1.768941044e-11
1.685279849e-11
8.212180343e-12
8.147043479e-12
7.984384738e-12
7.737691043e-12
7.422694639e-12
3.837030994e-12
3.811847099e-12
3.754200554e-12
3.669557819e-12
3.564535702e-12
2.009764335e-12
2.00181694e-12
1.983141871e-12
1.954908902e-12
1.915942353e-12
1.217267148e-12
1.214707925e-12
1.208503543e-12
1.19914186e-12
1.18705563e-12
7.998868504e-13
8.006863965e-13
8.020922008e-13
8.03460809e-13
8.075259578e-13
5.491889104e-13
5.504305472e-13
5.528650902e-13
5.563230119e-13
5.60842427e-13
3.40979565e-13
3.422333448e-13
3.447595353e-13
3.484089045e-13
3.531727048e-13
1.929081231e-13
1.937198692e-13
1.953278046e-13
1.976154316e-13
2.005673248e-13
8.945515676e-14
8.984538777e-14
9.049857367e-14
9.140604613e-14
9.248089288e-14
2.641136099e-14
2.643807965e-14
2.658796266e-14
2.674782338e-14
2.716287931e-14
4.405475899e-16
5.091469997e-16
6.753791468e-16
9.79122446e-16
1.486475624e-15
0
0
0
0
0
0
0
0
0
0
0
0
0
0
0
0
0
0
0
0
0
0
0
0
0
0
0
0
0
0
0
0
0
0
0
0
0
0
0
0
0
0
0
0
0
0
0
0
0
0
0
0
0
0
0
0
0
0
0
0
0
0
0
0
0
0
0
0
0
0
0
0
0
0
0
0
0
0
0
0
0
0
0
0
0
1.710337969e-17
1.734931394e-17
1.805497215e-17
1.922833573e-17
2.090101743e-17
4.14821513e-17
4.188768434e-17
4.273538068e-17
4.393532745e-17
4.539639298e-17
7.45373922e-17
7.453168247e-17
7.447401794e-17
7.427841745e-17
7.382146739e-17
9.622168327e-17
9.508627349e-17
9.259426233e-17
8.878506321e-17
8.356284209e-17
0
0
0
0
0
4.009031583e-17
3.838050325e-17
3.576814885e-17
3.340383717e-17
3.17707704e-17
1.732131802e-16
1.736443457e-16
1.776158074e-16
1.886788929e-16
2.089718769e-16
4.731768863e-16
4.707608913e-16
4.657762237e-16
4.586273331e-16
4.494569172e-16
5.284810013e-16
5.257619074e-16
5.199536689e-16
5.114524289e-16
5.006053914e-16
4.830183768e-16
4.820749815e-16
4.800263467e-16
4.770079157e-16
4.731552269e-16
4.994372367e-16
4.995618413e-16
4.998092379e-16
5.000046879e-16
4.99634508e-16
9.925064339e-09
1.324252175e-08
1.354146888e-08
1.273738425e-08
1.215654915e-08
1.268085784e-08
1.377332101e-08
1.476893595e-08
1.48588781e-08
1.47629002e-08
1.46570301e-08
1.430477021e-08
1.352978482e-08
1.254773738e-08
1.119442749e-08
9.630564212e-09
8.217356662e-09
6.881477939e-09
5.624716052e-09
4.479498632e-09
4.007543005e-09
4.376387669e-09
5.279591733e-09
5.010782303e-09
2.98833761e-09
1.33841283e-09
5.586942191e-10
2.268709259e-10
9.473672172e-11
3.820719368e-11
1.626903419e-11
7.211807607e-12
3.486659633e-12
1.899551049e-12
1.181314026e-12
8.155109518e-13
5.653169237e-13
3.576934219e-13
2.032154445e-13
9.362602409e-14
2.775832398e-14
2.040558191e-15
1.53804187e-17
0
0
0
0
0
0
0
0
0
0
0
0
0
0
0
0
2.223459805e-17
4.650151569e-17
7.325231092e-17
7.881891884e-17
0
2.785281171e-17
2.172116439e-16
4.416133632e-16
4.919976796e-16
4.702332848e-16
4.98197495e-16
2.764991205e-09
2.527057742e-10
8.889440219e-12
2.549762387e-13
1.803377246e-14
5.18409121e-09
2.167300512e-08
1.244446611e-09
3.866042171e-11
1.29181515e-12
6.042413617e-09
1.045195079e-08
1.019658612e-09
5.500154494e-11
7.169964047e-12
6.107782885e-09
5.219843571e-09
8.264235517e-10
6.957053276e-11
6.07863561e-12
6.382454874e-09
4.659956776e-09
1.25999308e-08
1.24186052e-09
8.797632301e-11
7.038001592e-09
5.771354217e-09
2.422498314e-08
3.001027893e-09
2.723745613e-10
7.85345764e-09
6.199009742e-09
2.338430141e-08
3.455023931e-09
3.921860568e-10
8.240609457e-09
5.480679149e-09
1.56708186e-08
2.68683761e-09
3.643848472e-10
7.904729259e-09
4.551217391e-09
1.001334386e-08
3.52811994e-09
5.268789953e-10
7.504408312e-09
4.106102766e-09
8.091359927e-09
8.38370392e-09
1.342135998e-09
7.135673675e-09
3.965564637e-09
7.680529354e-09
1.351702738e-08
2.391610239e-09
6.931074975e-09
3.917728663e-09
7.36556598e-09
1.643561368e-08
3.17551248e-09
6.619558651e-09
3.959625051e-09
6.604751609e-09
1.589560893e-08
3.441193766e-09
6.103580713e-09
3.714865253e-09
5.923725784e-09
1.432833768e-08
4.429575854e-09
5.523126028e-09
3.379003277e-09
5.505904086e-09
1.314438596e-08
6.351997827e-09
4.934123866e-09
3.109051737e-09
5.242370498e-09
1.231689831e-08
8.529251001e-09
4.478667784e-09
3.165161701e-09
5.337908502e-09
1.24264269e-08
9.424249254e-09
4.054609792e-09
3.424084401e-09
6.25858749e-09
1.436752261e-08
7.190948513e-09
3.808686753e-09
4.094799165e-09
8.927896592e-09
2.288335219e-08
6.01458688e-09
3.381295154e-09
3.495349347e-09
5.618601611e-09
1.100536066e-08
1.856321723e-08
3.396844571e-09
3.479749445e-09
4.633243728e-09
7.260422863e-09
1.173786532e-08
4.196379627e-09
4.66009e-09
6.128537491e-09
8.97012281e-09
1.263362753e-08
5.430370932e-09
6.071690758e-09
6.928813121e-09
7.281289282e-09
6.424294932e-09
5.053368177e-09
4.924839056e-09
4.459701893e-09
3.651828204e-09
2.678089198e-09
2.889543274e-09
2.56609214e-09
2.10750856e-09
1.598113678e-09
1.124738571e-09
1.265848099e-09
1.086684161e-09
8.703398557e-10
6.543491475e-10
4.659573676e-10
5.264034504e-10
4.518941039e-10
3.65735433e-10
2.802303455e-10
2.066631765e-10
2.144522107e-10
1.865992096e-10
1.531566186e-10
1.195493534e-10
9.130282456e-11
9.076008137e-11
8.202396245e-11
6.775924187e-11
5.323888867e-11
4.05646585e-11
3.6606494e-11
3.252394284e-11
2.864883411e-11
2.36320299e-11
1.871205616e-11
1.573566231e-11
1.438571998e-11
1.284945088e-11
1.092402543e-11
8.895264173e-12
7.028843731e-12
6.453345864e-12
5.791457801e-12
5.198597067e-12
4.448156169e-12
3.422092231e-12
3.226596749e-12
2.979851022e-12
2.676542877e-12
2.376466015e-12
1.898378188e-12
1.82922797e-12
1.730583571e-12
1.630297398e-12
1.553823294e-12
1.182198823e-12
1.17034449e-12
1.151178112e-12
1.146404462e-12
1.123525632e-12
8.339073278e-13
8.462870817e-13
8.502948679e-13
8.510659811e-13
8.485226372e-13
5.757882015e-13
5.873644996e-13
5.96955842e-13
6.077773264e-13
6.104551435e-13
3.676924268e-13
3.811126711e-13
3.88351964e-13
3.925733326e-13
3.940885571e-13
2.096269979e-13
2.164701787e-13
2.201314806e-13
2.220786504e-13
2.227666559e-13
9.694721816e-14
1.003682948e-13
1.025403791e-13
1.039585143e-13
1.054602473e-13
2.94889652e-14
3.176822935e-14
3.377672465e-14
3.599095825e-14
3.587194074e-14
3.117300966e-15
5.575262559e-15
6.309722486e-15
5.834503487e-15
4.834892258e-15
5.862550314e-17
8.876875625e-17
0
0
0
0
0
0
0
0
0
0
0
0
0
0
0
0
0
0
0
0
0
0
0
0
0
0
0
0
0
0
0
0
0
0
0
0
0
0
0
0
0
0
0
0
0
0
0
0
0
0
0
0
0
0
0
0
0
0
0
0
0
0
0
0
0
0
0
0
0
0
0
0
0
0
0
0
0
2.276745683e-18
0
1.818845188e-18
4.928033804e-18
1.010940884e-17
1.297010255e-17
2.407419323e-17
2.616640744e-17
2.618512797e-17
2.309206057e-17
1.856139833e-17
4.831626025e-17
5.03986415e-17
5.117863929e-17
5.01714826e-17
4.71043383e-17
7.22889872e-17
6.92972259e-17
6.40452429e-17
5.569523473e-17
3.899934862e-17
7.056380249e-17
4.72200823e-17
0
0
0
0
0
0
0
1.680657518e-18
1.04843463e-17
0
0
0
2.633490297e-17
2.235369604e-16
2.239618667e-16
2.281998973e-16
2.256651434e-16
2.191297636e-16
4.277611143e-16
4.049814655e-16
3.815519435e-16
3.575675093e-16
3.340359095e-16
4.784614482e-16
4.559858276e-16
4.334193094e-16
4.115890182e-16
3.910182114e-16
4.661742246e-16
4.585997563e-16
4.501548632e-16
4.386367378e-16
4.267319037e-16
4.950339504e-16
4.936241908e-16
4.921470406e-16
4.876488397e-16
4.827531881e-16
3.516567464e-14
4.178569525e-13
1.096858439e-13
5.835872891e-14
4.981647878e-14
4.786075512e-14
4.737671037e-14
4.729163232e-14
4.730157839e-14
4.732125561e-14
4.733322716e-14
4.733495273e-14
4.732959039e-14
4.731897619e-14
4.730737449e-14
4.731643683e-14
4.731258024e-14
4.729860462e-14
4.730563883e-14
4.731036428e-14
4.731069875e-14
4.73092032e-14
4.730717009e-14
4.730507277e-14
4.730310872e-14
4.730131941e-14
4.729968094e-14
4.729821321e-14
4.729687619e-14
4.72956249e-14
4.729447489e-14
4.72933985e-14
4.729239648e-14
4.729147795e-14
4.72906573e-14
4.728992515e-14
4.728928312e-14
4.728874831e-14
4.728828035e-14
4.728787557e-14
4.728748913e-14
4.7287133e-14
4.728682327e-14
4.72865332e-14
4.7286303e-14
4.728623336e-14
4.728623256e-14
4.728630466e-14
4.728638983e-14
4.728653279e-14
4.728668852e-14
4.728687581e-14
4.728708093e-14
4.728730528e-14
4.728699689e-14
4.728098762e-14
4.723398148e-14
4.698863456e-14
4.605475774e-14
4.487336298e-14
1.340945858e-12
3.670530381e-12
3.583951901e-13
1.190192707e-13
9.677002641e-14
9.265731086e-14
9.15195964e-14
9.1135834e-14
9.101187616e-14
9.097165318e-14
9.096110544e-14
9.095407979e-14
9.094235105e-14
9.091618039e-14
9.087285803e-14
9.08350867e-14
9.082683391e-14
9.085453382e-14
9.089421075e-14
9.091546683e-14
9.092244183e-14
9.092313568e-14
9.092184244e-14
9.092041706e-14
9.091958425e-14
9.091902784e-14
9.09185319e-14
9.091853501e-14
9.091859182e-14
9.091891024e-14
9.09194315e-14
9.091981549e-14
9.092048619e-14
9.092127119e-14
9.092224135e-14
9.092327326e-14
9.092474827e-14
9.092651701e-14
9.092817556e-14
9.092992837e-14
9.093172797e-14
9.093330269e-14
9.093511133e-14
9.093736587e-14
9.093912153e-14
9.094135137e-14
9.094280338e-14
9.094483951e-14
9.094661809e-14
9.094894315e-14
9.095096009e-14
9.095281197e-14
9.095472156e-14
9.095695403e-14
9.095841076e-14
9.095780189e-14
9.095094303e-14
9.095240881e-14
9.116470112e-14
9.159852163e-14
1.18028479e-11
1.240090483e-15
3.995360369e-13
1.704170019e-13
1.292560031e-13
1.199401527e-13
1.169226489e-13
1.156803364e-13
1.151195193e-13
1.148684787e-13
1.147639291e-13
1.147224513e-13
1.146989522e-13
1.146629705e-13
1.145949539e-13
1.145042986e-13
1.144935934e-13
1.1458293e-13
1.146598837e-13
1.146995703e-13
1.147143307e-13
1.147184847e-13
1.147193406e-13
1.147196831e-13
1.147203586e-13
1.147214162e-13
1.147226975e-13
1.147244029e-13
1.147263326e-13
1.147285826e-13
1.147311061e-13
1.147338195e-13
1.147368822e-13
1.147400717e-13
1.147435462e-13
1.147471943e-13
1.14751058e-13
1.147550502e-13
1.147589767e-13
1.147629819e-13
1.147670645e-13
1.147711775e-13
1.147754466e-13
1.147800093e-13
1.147842066e-13
1.1478872e-13
1.147926279e-13
1.147969998e-13
1.148010135e-13
1.148053587e-13
1.148095915e-13
1.148139164e-13
1.148178171e-13
1.148223834e-13
1.14826916e-13
1.148356107e-13
1.148652105e-13
1.149976808e-13
1.15471386e-13
1.160261786e-13
3.903495375e-11
1.379061894e-11
3.990562306e-12
6.144723735e-13
2.185276284e-13
1.531530726e-13
1.357188259e-13
1.29251592e-13
1.264772711e-13
1.252703418e-13
1.247678905e-13
1.245773129e-13
1.245086906e-13
1.24464697e-13
1.243939152e-13
1.242879991e-13
1.242946926e-13
1.244403266e-13
1.245546108e-13
1.24617392e-13
1.246466515e-13
1.246612564e-13
1.246707223e-13
1.246786352e-13
1.246861357e-13
1.24693453e-13
1.247006113e-13
1.247077212e-13
1.247147483e-13
1.24721741e-13
1.247286834e-13
1.247355795e-13
1.24742535e-13
1.247494688e-13
1.247563764e-13
1.247632957e-13
1.247701791e-13
1.247769468e-13
1.247835113e-13
1.247899841e-13
1.247963734e-13
1.248026507e-13
1.24808868e-13
1.248151071e-13
1.248211576e-13
1.248272369e-13
1.248329629e-13
1.248387624e-13
1.248442385e-13
1.248498411e-13
1.248552564e-13
1.248607384e-13
1.248658177e-13
1.24871461e-13
1.248777725e-13
1.248904961e-13
1.249271517e-13
1.25050818e-13
1.253745942e-13
1.256932333e-13
1.800058715e-11
6.105583183e-11
1.118922424e-11
3.961459657e-12
7.325707651e-13
2.68879319e-13
1.74410503e-13
1.457563613e-13
1.349121253e-13
1.305066754e-13
1.287338896e-13
1.280629648e-13
1.278314242e-13
1.277439355e-13
1.276722897e-13
1.275775022e-13
1.276164889e-13
1.27807775e-13
1.279556293e-13
1.280415931e-13
1.280868089e-13
1.281132867e-13
1.28132411e-13
1.281485902e-13
1.281633341e-13
1.281771069e-13
1.281900957e-13
1.282024441e-13
1.282142244e-13
1.282255131e-13
1.282363473e-13
1.282467727e-13
1.28256867e-13
1.282666437e-13
1.282761074e-13
1.28285306e-13
1.282942257e-13
1.28302841e-13
1.283111351e-13
1.283191735e-13
1.283269706e-13
1.283345077e-13
1.283418129e-13
1.283489378e-13
1.283558305e-13
1.283625673e-13
1.283690525e-13
1.283753958e-13
1.283814619e-13
1.283874523e-13
1.283932291e-13
1.283989538e-13
1.284044117e-13
1.284102791e-13
1.284172492e-13
1.284301709e-13
1.284614873e-13
1.285443504e-13
1.287141423e-13
1.288600241e-13
2.360720039e-11
1.310734978e-10
5.811267612e-11
2.023751439e-11
2.837285885e-12
5.808934847e-13
2.513117806e-13
1.71841306e-13
1.451402596e-13
1.348788755e-13
1.308618337e-13
1.293544532e-13
1.288279618e-13
1.286454828e-13
1.285513628e-13
1.28464017e-13
1.285314886e-13
1.287559988e-13
1.28933475e-13
1.290425948e-13
1.2910398e-13
1.29141796e-13
1.291693772e-13
1.291922487e-13
1.292125062e-13
1.292309586e-13
1.292479999e-13
1.292638816e-13
1.292787642e-13
1.292927808e-13
1.293060246e-13
1.293185789e-13
1.29330525e-13
1.293419203e-13
1.293528027e-13
1.293632214e-13
1.293731989e-13
1.29382754e-13
1.293919067e-13
1.294007019e-13
1.294091623e-13
1.294172889e-13
1.29425104e-13
1.294326278e-13
1.294398493e-13
1.294468171e-13
1.294535351e-13
1.294600437e-13
1.294662997e-13
1.294723646e-13
1.294781997e-13
1.294839076e-13
1.294894667e-13
1.294954064e-13
1.295027701e-13
1.295154728e-13
1.295420367e-13
1.295980925e-13
1.296890917e-13
1.297559779e-13
2.70502292e-11
4.280714209e-11
1.853929502e-10
3.725060705e-11
1.033292478e-11
1.638926673e-12
4.513247221e-13
2.281436742e-13
1.644092522e-13
1.417921364e-13
1.333347357e-13
1.30248013e-13
1.291851686e-13
1.288302571e-13
1.286870155e-13
1.285959012e-13
1.286802943e-13
1.289264292e-13
1.291290672e-13
1.292618572e-13
1.293412223e-13
1.29391611e-13
1.294280585e-13
1.294574515e-13
1.294827037e-13
1.295051361e-13
1.295254401e-13
1.29544041e-13
1.295612281e-13
1.295772115e-13
1.29592148e-13
1.29606166e-13
1.296193735e-13
1.296318559e-13
1.296436791e-13
1.296549046e-13
1.296655782e-13
1.296757416e-13
1.296854335e-13
1.296946947e-13
1.297035561e-13
1.297120362e-13
1.297201619e-13
1.297279541e-13
1.297354193e-13
1.297425795e-13
1.297494487e-13
1.297560637e-13
1.297624342e-13
1.297685799e-13
1.297744989e-13
1.297802635e-13
1.297859691e-13
1.297921621e-13
1.298001418e-13
1.298134981e-13
1.298386748e-13
1.298834056e-13
1.299436272e-13
1.299802662e-13
2.980325058e-11
2.451231568e-11
2.736306752e-10
1.290444042e-10
4.462064125e-11
7.835669225e-12
1.216966261e-12
3.78579949e-13
2.0549642e-13
1.546693509e-13
1.374132672e-13
1.314581788e-13
1.294834355e-13
1.288526993e-13
1.286323667e-13
1.285270065e-13
1.286191502e-13
1.288776147e-13
1.290987783e-13
1.292530963e-13
1.293510283e-13
1.294154194e-13
1.294620802e-13
1.294989667e-13
1.295298221e-13
1.295565513e-13
1.295802469e-13
1.296015923e-13
1.296210475e-13
1.296389329e-13
1.296554843e-13
1.296708856e-13
1.29685282e-13
1.296987913e-13
1.297115069e-13
1.297235095e-13
1.297348651e-13
1.297456315e-13
1.297558591e-13
1.297655925e-13
1.297748696e-13
1.297837195e-13
1.297921735e-13
1.298002613e-13
1.298080055e-13
1.29815422e-13
1.298225157e-13
1.298293079e-13
1.29835822e-13
1.298420882e-13
1.298481388e-13
1.298540615e-13
1.298600344e-13
1.298667048e-13
1.298756207e-13
1.2989037e-13
1.299162411e-13
1.299573836e-13
1.30006438e-13
1.300308431e-13
4.902116829e-11
1.180073961e-11
9.965919471e-11
3.498915582e-10
7.524096283e-11
2.499258907e-11
3.328227586e-12
6.927542243e-13
2.784752024e-13
1.754312259e-13
1.435322651e-13
1.331470591e-13
1.298575213e-13
1.288571211e-13
1.285404784e-13
1.284157541e-13
1.285106222e-13
1.287771267e-13
1.290117582e-13
1.291834559e-13
1.292981654e-13
1.293765648e-13
1.294343341e-13
1.294798489e-13
1.295173181e-13
1.29549112e-13
1.295767395e-13
1.29601208e-13
1.296232012e-13
1.296431902e-13
1.296615135e-13
1.296784235e-13
1.296941155e-13
1.297087447e-13
1.297224354e-13
1.297352918e-13
1.297473987e-13
1.297588295e-13
1.297696454e-13
1.297798995e-13
1.297896384e-13
1.297989015e-13
1.298077255e-13
1.298161439e-13
1.298241864e-13
1.298318781e-13
1.298392345e-13
1.298462747e-13
1.298530153e-13
1.29859486e-13
1.298657377e-13
1.298719006e-13
1.298782398e-13
1.298855458e-13
1.29895608e-13
1.299120204e-13
1.299392194e-13
1.299793795e-13
1.300236567e-13
1.300413068e-13
1.407729699e-10
1.451269678e-11
5.334073233e-11
4.6906524e-10
2.114358738e-10
3.318686653e-11
9.591262774e-12
1.521034655e-12
4.240258555e-13
2.087818682e-13
1.519328511e-13
1.351958162e-13
1.302645037e-13
1.288543299e-13
1.284412326e-13
1.282981959e-13
1.283942251e-13
1.286672565e-13
1.289126662e-13
1.290986378e-13
1.292278906e-13
1.293193326e-13
1.293882873e-13
1.294431195e-13
1.294880944e-13
1.295257763e-13
1.295579845e-13
1.295860529e-13
1.296109323e-13
1.296332866e-13
1.29653584e-13
1.296721654e-13
1.296892881e-13
1.297051526e-13
1.297199182e-13
1.297337154e-13
1.2974665e-13
1.297588123e-13
1.29770277e-13
1.297811097e-13
1.297913665e-13
1.298010952e-13
1.298103384e-13
1.298191344e-13
1.29827516e-13
1.298355138e-13
1.298431517e-13
1.298504562e-13
1.298574493e-13
1.298641647e-13
1.298706625e-13
1.298771143e-13
1.298838793e-13
1.298919184e-13
1.299032279e-13
1.299212823e-13
1.29949763e-13
1.299894817e-13
1.300308341e-13
1.300431795e-13
2.878315032e-10
2.721225056e-11
2.466855409e-11
2.192348276e-10
4.918988363e-10
9.349415419e-11
2.726747755e-11
3.718464792e-12
7.083566301e-13
2.591030405e-13
1.621664343e-13
1.372286032e-13
1.305727626e-13
1.28813138e-13
1.283322434e-13
1.28178867e-13
1.282769513e-13
1.285563219e-13
1.288111531e-13
1.290094342e-13
1.291514878e-13
1.29254873e-13
1.293346764e-13
1.293991523e-13
1.294523558e-13
1.294967451e-13
1.295342537e-13
1.29566476e-13
1.295946458e-13
1.296196588e-13
1.2964215e-13
1.296625731e-13
1.296812617e-13
1.296984704e-13
1.297143986e-13
1.297292071e-13
1.297430265e-13
1.297559666e-13
1.297681187e-13
1.297795617e-13
1.297903626e-13
1.298005786e-13
1.298102591e-13
1.298194484e-13
1.298281833e-13
1.298365e-13
1.298444267e-13
1.298519955e-13
1.29859238e-13
1.298662018e-13
1.29872967e-13
1.298797514e-13
1.298870122e-13
1.298958717e-13
1.299084637e-13
1.299280379e-13
1.299575685e-13
1.299967978e-13
1.300357749e-13
1.300432753e-13
4.286471476e-10
4.497239737e-11
1.606298089e-11
1.424944331e-10
8.445623338e-10
2.216038111e-10
4.031507631e-11
8.33931474e-12
1.246821993e-12
3.235887356e-13
1.705704149e-13
1.381580781e-13
1.305613915e-13
1.28709626e-13
1.282195238e-13
1.280644779e-13
1.281644123e-13
1.284488044e-13
1.28711039e-13
1.289194253e-13
1.290724662e-13
1.291865146e-13
1.292764561e-13
1.293504681e-13
1.294123051e-13
1.294640872e-13
1.295076181e-13
1.295446059e-13
1.295765268e-13
1.296045283e-13
1.296294484e-13
1.296518851e-13
1.296722696e-13
1.296909234e-13
1.297080932e-13
1.297239753e-13
1.297387289e-13
1.297524862e-13
1.297653576e-13
1.297774361e-13
1.29788801e-13
1.29799519e-13
1.298096473e-13
1.29819237e-13
1.29828331e-13
1.298369722e-13
1.298451932e-13
1.298530315e-13
1.298605261e-13
1.298677401e-13
1.298747852e-13
1.298819384e-13
1.298897676e-13
1.298995295e-13
1.299133926e-13
1.299343336e-13
1.299646698e-13
1.300032639e-13
1.300400545e-13
1.30042573e-13
5.180139822e-10
6.182483094e-11
1.699775302e-11
1.141294983e-10
8.213157505e-10
4.383283265e-10
6.858089296e-11
1.510927578e-11
2.016111505e-12
3.912497077e-13
1.737939601e-13
1.374769986e-13
1.302295455e-13
1.285766803e-13
1.281224457e-13
1.279673103e-13
1.280668995e-13
1.28353056e-13
1.286188315e-13
1.288336574e-13
1.289948127e-13
1.291174465e-13
1.292160941e-13
1.292988193e-13
1.293690735e-13
1.294285145e-13
1.29478586e-13
1.295208941e-13
1.295570344e-13
1.295883742e-13
1.296159692e-13
1.296405904e-13
1.296627927e-13
1.296829819e-13
1.297014632e-13
1.297184749e-13
1.297342079e-13
1.297488188e-13
1.297624377e-13
1.297751735e-13
1.297871181e-13
1.297983491e-13
1.298089327e-13
1.298189278e-13
1.298283855e-13
1.298373541e-13
1.298458715e-13
1.298539816e-13
1.298617317e-13
1.298692064e-13
1.298765555e-13
1.298841172e-13
1.298925726e-13
1.299032871e-13
1.299183827e-13
1.299405314e-13
1.299714397e-13
1.300092548e-13
1.30043917e-13
1.300407934e-13
7.227789786e-10
9.596461753e-11
2.041946048e-11
8.941226201e-11
7.323395502e-10
8.500309057e-10
1.386447086e-10
3.175441156e-11
3.15852766e-12
4.694077177e-13
1.741385027e-13
1.361365089e-13
1.298310792e-13
1.28459205e-13
1.280482132e-13
1.278940587e-13
1.279936085e-13
1.282789279e-13
1.285436661e-13
1.287599048e-13
1.289249e-13
1.290528582e-13
1.291577001e-13
1.292472782e-13
1.293247601e-13
1.293913238e-13
1.29447904e-13
1.294957784e-13
1.295364658e-13
1.295714402e-13
1.296019369e-13
1.296289023e-13
1.296530311e-13
1.296748298e-13
1.296946748e-13
1.297128544e-13
1.297295961e-13
1.297450832e-13
1.297594666e-13
1.29772872e-13
1.297854049e-13
1.29797155e-13
1.298081985e-13
1.298186028e-13
1.298284263e-13
1.298377227e-13
1.298465367e-13
1.298549195e-13
1.298629304e-13
1.298706812e-13
1.298783654e-13
1.298863818e-13
1.298955152e-13
1.299072046e-13
1.299234816e-13
1.299466878e-13
1.299779618e-13
1.300148841e-13
1.300474075e-13
1.300379169e-13
1.126692596e-09
1.668021246e-10
3.33574967e-11
1.038413924e-10
9.654845085e-10
1.372495182e-09
2.384188469e-10
5.785840712e-11
5.371435179e-12
5.914256498e-13
1.746326384e-13
1.352297023e-13
1.297336518e-13
1.284816151e-13
1.280474221e-13
1.278707419e-13
1.279614578e-13
1.282388481e-13
1.284955642e-13
1.287067329e-13
1.28870227e-13
1.289991611e-13
1.291066537e-13
1.292001898e-13
1.292826533e-13
1.293548009e-13
1.2941703e-13
1.294701344e-13
1.295153442e-13
1.295540612e-13
1.295875928e-13
1.296170148e-13
1.296431513e-13
1.296666139e-13
1.296878578e-13
1.297072279e-13
1.297249924e-13
1.297413645e-13
1.297565172e-13
1.297705942e-13
1.297837158e-13
1.297959843e-13
1.298074867e-13
1.298182989e-13
1.298284861e-13
1.298381075e-13
1.298472166e-13
1.298558741e-13
1.298641551e-13
1.298722029e-13
1.298802596e-13
1.298887852e-13
1.298986469e-13
1.299113133e-13
1.299287047e-13
1.299528252e-13
1.299842891e-13
1.300202435e-13
1.300506704e-13
1.300350009e-13
1.646840489e-09
2.703690105e-10
6.511265784e-11
2.084385103e-10
1.844234204e-09
1.597257182e-09
2.900838344e-10
6.546904204e-11
7.551461635e-12
7.559067334e-13
1.808231749e-13
1.360049158e-13
1.301660261e-13
1.286937679e-13
1.28138794e-13
1.27908464e-13
1.279794197e-13
1.282397069e-13
1.284810145e-13
1.286805966e-13
1.288368351e-13
1.289619172e-13
1.290679947e-13
1.291619843e-13
1.292464507e-13
1.293218172e-13
1.293880192e-13
1.294453276e-13
1.294945341e-13
1.295367803e-13
1.295732915e-13
1.296051767e-13
1.296333415e-13
1.296584855e-13
1.296811383e-13
1.297017018e-13
1.297204867e-13
1.297377378e-13
1.297536524e-13
1.297683933e-13
1.297820959e-13
1.297948753e-13
1.29806829e-13
1.298180414e-13
1.298285845e-13
1.29838525e-13
1.298479259e-13
1.298568596e-13
1.298654214e-13
1.298737886e-13
1.298822522e-13
1.298913329e-13
1.299019589e-13
1.299155922e-13
1.299340191e-13
1.299589079e-13
1.299904009e-13
1.300253325e-13
1.300537611e-13
1.300324944e-13
1.928100147e-09
3.54451051e-10
2.194995204e-10
1.27452994e-09
6.179524484e-09
1.455465943e-09
2.586855283e-10
5.538410023e-11
8.622300229e-12
8.981170308e-13
1.925704224e-13
1.377119075e-13
1.306064029e-13
1.288561996e-13
1.282225293e-13
1.279678409e-13
1.28032436e-13
1.282766249e-13
1.284991098e-13
1.286822231e-13
1.288264007e-13
1.289434121e-13
1.290443457e-13
1.291353831e-13
1.292187352e-13
1.292945984e-13
1.293626046e-13
1.294225872e-13
1.294748323e-13
1.295200734e-13
1.295592973e-13
1.29593524e-13
1.29623664e-13
1.296504634e-13
1.296745077e-13
1.29696249e-13
1.297160388e-13
1.297341539e-13
1.297508164e-13
1.297662086e-13
1.297804807e-13
1.297937602e-13
1.298061551e-13
1.29817758e-13
1.298286492e-13
1.298389033e-13
1.298485937e-13
1.298578075e-13
1.298666639e-13
1.29875377e-13
1.298842855e-13
1.298939668e-13
1.299053923e-13
1.299199936e-13
1.299393968e-13
1.299649406e-13
1.299963477e-13
1.300302375e-13
1.300567863e-13
1.300305125e-13
1.497172121e-09
3.389439903e-10
5.706690747e-10
3.705631389e-09
4.366759641e-09
8.220210059e-10
1.514425513e-10
3.345610614e-11
8.802737552e-12
1.526799249e-12
3.002039621e-13
1.537377625e-13
1.336988305e-13
1.297204906e-13
1.285604543e-13
1.281434912e-13
1.281521151e-13
1.283566932e-13
1.285482643e-13
1.28707975e-13
1.288355832e-13
1.289410763e-13
1.290337219e-13
1.291185804e-13
1.291974247e-13
1.292704644e-13
1.293375823e-13
1.293986565e-13
1.294530893e-13
1.295008849e-13
1.295426281e-13
1.295791494e-13
1.296112927e-13
1.296398053e-13
1.296653049e-13
1.296882841e-13
1.297091324e-13
1.297281586e-13
1.297456101e-13
1.297616889e-13
1.297765612e-13
1.297903675e-13
1.298032263e-13
1.298152401e-13
1.298264983e-13
1.298370854e-13
1.298470867e-13
1.298566082e-13
1.298658003e-13
1.298749222e-13
1.298843635e-13
1.298947658e-13
1.29907149e-13
1.299229172e-13
1.299435342e-13
1.299700122e-13
1.300016488e-13
1.300348152e-13
1.300597383e-13
1.300288502e-13
1.483287885e-09
1.413606168e-09
6.709418386e-09
1.142912447e-08
2.398111293e-09
4.063315271e-10
8.273339262e-11
2.56008715e-11
7.717887932e-12
3.064970367e-12
7.735065354e-13
2.421126652e-13
1.493536461e-13
1.33228379e-13
1.296591988e-13
1.286059201e-13
1.284000432e-13
1.284972733e-13
1.286276261e-13
1.287499046e-13
1.288534812e-13
1.289417014e-13
1.290194695e-13
1.290893262e-13
1.291521829e-13
1.292094763e-13
1.292651586e-13
1.293278815e-13
1.293868856e-13
1.294389765e-13
1.294844024e-13
1.295241503e-13
1.29559135e-13
1.295901266e-13
1.296177712e-13
1.296426026e-13
1.29665053e-13
1.296854695e-13
1.297041325e-13
1.297212703e-13
1.297370716e-13
1.297516951e-13
1.297652748e-13
1.29777928e-13
1.297897583e-13
1.29800867e-13
1.298113603e-13
1.29821379e-13
1.298311318e-13
1.298409747e-13
1.298514017e-13
1.298632273e-13
1.29877697e-13
1.29896427e-13
1.299210211e-13
1.299524684e-13
1.29989757e-13
1.30028543e-13
1.300576637e-13
1.300251703e-13
2.153115161e-08
1.602823483e-08
1.877444448e-08
5.190705907e-09
9.923368143e-10
2.049695927e-10
5.530812038e-11
2.014574527e-11
7.50809476e-12
3.647562476e-12
1.863885617e-12
6.561882896e-13
2.394158528e-13
1.50196765e-13
1.335271029e-13
1.298275237e-13
1.289204773e-13
1.2874121e-13
1.287393643e-13
1.287890181e-13
1.288445688e-13
1.288909223e-13
1.289224389e-13
1.28935182e-13
1.289307278e-13
1.288937124e-13
1.289460914e-13
1.29079047e-13
1.291709552e-13
1.292356321e-13
1.29284869e-13
1.293257358e-13
1.293612044e-13
1.29392536e-13
1.294204569e-13
1.294455099e-13
1.294681318e-13
1.294886779e-13
1.295074358e-13
1.29524641e-13
1.295404888e-13
1.295551432e-13
1.295687432e-13
1.295814105e-13
1.295932537e-13
1.2960438e-13
1.296149054e-13
1.296249828e-13
1.296348405e-13
1.296448397e-13
1.296554713e-13
1.29667515e-13
1.296820948e-13
1.297005943e-13
1.297242585e-13
1.297536928e-13
1.297876764e-13
1.29822239e-13
1.298470826e-13
1.298095226e-13
1.797020773e-08
1.871321086e-08
7.212180119e-09
1.822358391e-09
4.259982825e-10
1.167086119e-10
3.827401621e-11
1.630347252e-11
6.945830193e-12
3.531438377e-12
2.613363305e-12
1.548403319e-12
6.234135153e-13