/*--------------------------------*- C++ -*----------------------------------*\
  =========                 |
  \\      /  F ield         | OpenFOAM: The Open Source CFD Toolbox
   \\    /   O peration     | Website:  https://openfoam.org
    \\  /    A nd           | Version:  10
     \\/     M anipulation  |
\*---------------------------------------------------------------------------*/
FoamFile
{
    format      ascii;
    class       volScalarField;
    location    "0.02499901733";
    object      C3H8;
}
// * * * * * * * * * * * * * * * * * * * * * * * * * * * * * * * * * * * * * //

dimensions      [0 0 0 0 0 0 0];

internalField   nonuniform List<scalar> 
5170
(
9.836077593e-14
9.819231891e-14
9.707492006e-14
8.916663167e-14
6.787982958e-15
1.95719731e-13
1.951926541e-13
1.928094902e-13
1.806798861e-13
1.1197411e-13
2.926350636e-13
2.917537425e-13
2.882595329e-13
2.737271011e-13
2.16726446e-13
3.888215705e-13
3.876227889e-13
3.832919843e-13
3.677729786e-13
3.222514426e-13
4.841637215e-13
4.826994778e-13
4.778396187e-13
4.624911995e-13
4.283724102e-13
5.785727448e-13
5.769421325e-13
5.71881706e-13
5.577535775e-13
5.350040352e-13
6.720411439e-13
6.703281647e-13
6.653891424e-13
6.53529766e-13
6.42087325e-13
7.646450873e-13
7.629638769e-13
7.584410859e-13
7.497340777e-13
7.49570594e-13
8.564432297e-13
8.548972467e-13
8.511194611e-13
8.46373371e-13
8.574083063e-13
9.475400699e-13
9.46200365e-13
9.434002852e-13
9.434983835e-13
9.65598358e-13
1.038011054e-12
1.036943921e-12
1.035295372e-12
1.041135183e-12
1.074106189e-12
1.127872264e-12
1.127166234e-12
1.127036922e-12
1.139252537e-12
1.182820977e-12
1.217165952e-12
1.216916168e-12
1.218764002e-12
1.237867894e-12
1.291656538e-12
1.305953446e-12
1.306254964e-12
1.310491092e-12
1.337008174e-12
1.40055099e-12
1.394287036e-12
1.395251603e-12
1.402250103e-12
1.436654135e-12
1.509421646e-12
1.482186679e-12
1.483938576e-12
1.494209114e-12
1.536856596e-12
1.618043714e-12
1.569690797e-12
1.572371376e-12
1.58630425e-12
1.637450621e-12
1.726551796e-12
1.656863107e-12
1.660693806e-12
1.679222793e-12
1.741344495e-12
1.845173596e-12
1.75118389e-12
1.778886354e-12
1.975226768e-12
3.317922394e-12
7.93148728e-12
4.061078862e-12
1.428323628e-11
1.014669123e-10
7.065816451e-10
3.420492141e-09
0
2.489749838e-36
4.817661256e-37
0
0
0
0
0
0
0
0
0
0
0
0
0
0
0
0
0
0
0
0
0
0
0
0
0
0
0
0
0
0
0
0
0
0
0
0
0
0
0
0
0
0
0
0
0
0
0
0
0
0
0
0
0
0
0
0
0
0
0
0
0
0
0
0
0
0
0
0
0
0
0
0
0
0
0
0
0
0
0
0
0
0
0
0
0
0
0
1.981655916e-10
0
0
0
0
5.909180885e-08
8.393568291e-09
9.819730647e-10
0
8.63464997e-15
8.598549489e-11
6.574653298e-10
1.011872118e-08
1.508500715e-07
2.020779906e-06
4.658182495e-10
3.146212353e-09
3.861095205e-08
4.06916954e-07
3.121628604e-06
1.571806543e-09
9.55946141e-09
9.63612097e-08
7.705745817e-07
4.008947345e-06
4.161546388e-09
2.29138772e-08
1.943257475e-07
1.230341868e-06
4.732754361e-06
9.56881988e-09
4.80822543e-08
3.474386248e-07
1.754805104e-06
5.271290379e-06
2.022200129e-08
9.363745141e-08
5.707754554e-07
2.296013723e-06
5.687404149e-06
4.00036603e-08
1.697869567e-07
8.637854913e-07
2.826899917e-06
6.076864477e-06
7.480569895e-08
2.884228874e-07
1.219780924e-06
3.33314933e-06
6.42799918e-06
1.338133322e-07
4.62990755e-07
1.62422342e-06
3.798374026e-06
6.704264182e-06
2.303332881e-07
7.037533699e-07
2.058856364e-06
4.222266902e-06
6.920882108e-06
3.837904275e-07
1.019518808e-06
2.507792844e-06
4.609358695e-06
7.109249222e-06
6.387789397e-07
1.413363411e-06
2.957888854e-06
4.972545253e-06
7.287784954e-06
1.005408917e-06
1.868142607e-06
3.4064325e-06
5.311500488e-06
7.435736102e-06
1.508677835e-06
2.383362021e-06
3.858265261e-06
5.630188706e-06
7.557949259e-06
2.150620844e-06
2.959742611e-06
4.323761637e-06
5.945888262e-06
7.686957146e-06
2.87797315e-06
3.59295461e-06
4.824745957e-06
6.294839748e-06
7.871603508e-06
3.719133175e-06
4.325348019e-06
5.411874004e-06
6.739457874e-06
8.188269847e-06
4.674048879e-06
5.193594059e-06
6.181504595e-06
7.454363633e-06
8.908054591e-06
5.843393151e-06
6.343955316e-06
7.348951388e-06
8.724561497e-06
1.040082611e-05
7.415316849e-06
7.918586732e-06
8.949022479e-06
1.037848496e-05
1.211652614e-05
9.319233199e-06
9.727643436e-06
1.055064303e-05
1.165243515e-05
1.291903877e-05
1.068188274e-05
1.089606932e-05
1.132975463e-05
1.189716505e-05
1.250935042e-05
1.075594718e-05
1.082772632e-05
1.096560404e-05
1.112774066e-05
1.126835477e-05
9.801618832e-06
9.799822855e-06
9.784483286e-06
9.73948805e-06
9.647730228e-06
8.36529343e-06
8.336935208e-06
8.26808229e-06
8.155314404e-06
7.995053033e-06
6.866032745e-06
6.833169551e-06
6.757564468e-06
6.639687843e-06
6.480767544e-06
5.582711907e-06
5.553906995e-06
5.487895161e-06
5.386516157e-06
5.25222077e-06
4.503076282e-06
4.479715014e-06
4.426528175e-06
4.345402626e-06
4.238725781e-06
3.606189499e-06
3.588005473e-06
3.546745133e-06
3.483988053e-06
3.401695055e-06
2.85874679e-06
2.84497507e-06
2.813742925e-06
2.766260187e-06
2.704031117e-06
2.232323335e-06
2.222145965e-06
2.199024191e-06
2.163827266e-06
2.117667646e-06
1.7066283e-06
1.699301721e-06
1.682587462e-06
1.65707974e-06
1.623580843e-06
1.268563117e-06
1.263448565e-06
1.251707563e-06
1.233724188e-06
1.210065327e-06
9.104411555e-07
9.070045704e-07
8.990470023e-07
8.868021065e-07
8.706613096e-07
6.271514066e-07
6.249466429e-07
6.197847876e-07
6.117967295e-07
6.012445807e-07
4.128639109e-07
4.115233372e-07
4.083400481e-07
4.033800661e-07
3.968124725e-07
2.590462248e-07
2.582777394e-07
2.564205578e-07
2.535029612e-07
2.496294442e-07
1.546676128e-07
1.542544369e-07
1.53233134e-07
1.516125969e-07
1.494545289e-07
8.780242857e-08
8.759503316e-08
8.706743435e-08
8.621993359e-08
8.508723577e-08
4.738142889e-08
4.728494135e-08
4.702983511e-08
4.661367544e-08
4.605504131e-08
2.43218185e-08
2.428054519e-08
2.416555002e-08
2.397421395e-08
2.371597395e-08
1.190234382e-08
1.188632814e-08
1.183819387e-08
1.175599897e-08
1.164429719e-08
5.581380368e-09
5.575837764e-09
5.557164804e-09
5.524156155e-09
5.478900674e-09
2.53510349e-09
2.533432336e-09
2.526678016e-09
2.514181071e-09
2.496855299e-09
1.139512922e-09
1.1390685e-09
1.136708229e-09
1.132106269e-09
1.12564595e-09
5.271147004e-10
5.269785075e-10
5.26087049e-10
5.242944727e-10
5.217568976e-10
2.659245773e-10
2.65834386e-10
2.653935701e-10
2.645433524e-10
2.633468747e-10
1.546543615e-10
1.545612141e-10
1.542588405e-10
1.537271303e-10
1.529925323e-10
1.050133137e-10
1.049191004e-10
1.046725273e-10
1.042690335e-10
1.037207921e-10
8.034261826e-11
8.025479335e-11
8.004483919e-11
7.971401291e-11
7.926873537e-11
6.597298049e-11
6.589393766e-11
6.571371179e-11
6.543519291e-11
6.506239876e-11
5.653201875e-11
5.646442241e-11
5.631144878e-11
5.607629867e-11
5.576189968e-11
4.954403861e-11
4.948579043e-11
4.935497134e-11
4.915460093e-11
4.888692182e-11
4.406351383e-11
4.401310196e-11
4.390039053e-11
4.372811455e-11
4.349805076e-11
3.962632658e-11
3.958233343e-11
3.948428e-11
3.933464038e-11
3.913486173e-11
3.596586153e-11
3.592710941e-11
3.584095125e-11
3.57096217e-11
3.553431737e-11
3.291249752e-11
3.287795811e-11
3.280133793e-11
3.268467474e-11
3.252897368e-11
3.034715145e-11
3.031593593e-11
3.024683843e-11
3.014174615e-11
3.00015207e-11
2.817160768e-11
2.814297724e-11
2.807973518e-11
2.798365755e-11
2.785550279e-11
2.62858911e-11
2.625932119e-11
2.620073467e-11
2.611181617e-11
2.59932468e-11
2.458188651e-11
2.455713212e-11
2.450261036e-11
2.441991346e-11
2.430966734e-11
2.295706968e-11
2.293414447e-11
2.288366024e-11
2.280709425e-11
2.270502713e-11
2.133901685e-11
2.131809671e-11
2.127199086e-11
2.120203085e-11
2.110875351e-11
1.970313007e-11
1.968439655e-11
1.964304645e-11
1.958024461e-11
1.949648005e-11
1.807664785e-11
1.806017218e-11
1.802373596e-11
1.796833309e-11
1.789440014e-11
1.651974494e-11
1.650539945e-11
1.647362556e-11
1.642526945e-11
1.636070848e-11
1.510275195e-11
1.509022062e-11
1.506244701e-11
1.502015896e-11
1.496368849e-11
1.386776132e-11
1.385664593e-11
1.383202802e-11
1.379455997e-11
1.374453045e-11
1.283024304e-11
1.282018593e-11
1.279795047e-11
1.2764143e-11
1.271901933e-11
1.202639983e-11
1.201710191e-11
1.199657657e-11
1.196539858e-11
1.192380107e-11
7.327886201e-06
7.84353682e-06
8.29923622e-06
8.550058827e-06
8.602471712e-06
8.637512421e-06
8.77822431e-06
8.895281948e-06
8.90724696e-06
8.883849991e-06
8.887568377e-06
8.911407305e-06
8.892661795e-06
8.850280739e-06
8.843544068e-06
8.924138388e-06
9.173615503e-06
9.933338109e-06
1.167564331e-05
1.341800447e-05
1.379697078e-05
1.289471408e-05
1.132869191e-05
9.558408126e-06
7.866606146e-06
6.35818242e-06
5.150416463e-06
4.158332764e-06
3.339868882e-06
2.657429357e-06
2.083266016e-06
1.598799891e-06
1.192751757e-06
8.590237253e-07
5.937828597e-07
3.922815765e-07
2.470384446e-07
1.48065944e-07
8.439351806e-08
4.573427129e-08
2.358005501e-08
1.159230249e-08
5.461346947e-09
2.491795738e-09
1.124412477e-09
5.214010661e-10
2.630723906e-10
1.526752753e-10
1.033884805e-10
7.895539754e-11
6.478166046e-11
5.551885453e-11
4.867698544e-11
4.331602129e-11
3.897578941e-11
3.539400605e-11
3.240376578e-11
2.988825917e-11
2.775156985e-11
2.589676625e-11
2.421978653e-11
2.262180384e-11
2.103282227e-11
1.942849025e-11
1.783458998e-11
1.630861531e-11
1.491815938e-11
1.370412783e-11
1.268246569e-11
1.189000732e-11
1.757179989e-05
1.285684758e-06
3.687897866e-08
8.84714379e-10
1.677273585e-11
1.622134028e-05
8.93986838e-06
5.199265516e-07
1.572710232e-08
3.697144183e-10
1.590859083e-05
2.194762722e-05
1.968055656e-06
1.014901783e-07
3.118866183e-09
1.518303618e-05
2.245224733e-05
2.755042793e-06
2.127405824e-07
1.009383724e-08
1.423942303e-05
2.023009647e-05
3.194456179e-06
3.28675491e-07
2.352592646e-08
1.354751274e-05
1.906559588e-05
5.522043159e-06
6.895373385e-07
6.275275334e-08
1.323007218e-05
1.885519592e-05
9.283332578e-06
1.327663204e-06
1.480659802e-07
1.288541243e-05
1.785909682e-05
1.18108321e-05
1.896535604e-06
2.470317759e-07
1.238396465e-05
1.645243864e-05
1.278967269e-05
2.257168682e-06
3.361327827e-07
1.193045797e-05
1.550711788e-05
1.360247258e-05
2.676035104e-06
4.418555743e-07
1.162976662e-05
1.505209677e-05
1.420681355e-05
3.304534786e-06
5.950734409e-07
1.13984878e-05
1.452737642e-05
1.409643228e-05
4.110347974e-06
7.950470354e-07
1.10951102e-05
1.370929763e-05
1.335710517e-05
5.01180108e-06
1.034075598e-06
1.07806259e-05
1.300222997e-05
1.279896777e-05
5.893911037e-06
1.299072934e-06
1.056426876e-05
1.260707814e-05
1.259165749e-05
6.757523918e-06
1.619783581e-06
1.049258783e-05
1.245421008e-05
1.267925914e-05
7.635205911e-06
2.018767938e-06
1.063990353e-05
1.254068246e-05
1.288373214e-05
8.168958436e-06
2.277108788e-06
1.143760013e-05
1.348089892e-05
1.367507497e-05
8.040855088e-06
2.178179807e-06
1.359068461e-05
1.696238605e-05
1.919948531e-05
1.190498806e-05
3.416993998e-06
1.537254969e-05
1.892271779e-05
2.325947667e-05
2.77872265e-05
2.946680228e-05
1.508906321e-05
1.688913526e-05
1.827135264e-05
1.879167783e-05
1.754834352e-05
1.347134411e-05
1.3951398e-05
1.38294953e-05
1.29871202e-05
1.141958544e-05
1.144790813e-05
1.127879345e-05
1.069595092e-05
9.726153003e-06
8.465807206e-06
9.46762018e-06
9.080101746e-06
8.44258463e-06
7.60481804e-06
6.643016781e-06
7.716372525e-06
7.310726526e-06
6.749674641e-06
6.077638458e-06
5.345123541e-06
6.209950999e-06
5.858898223e-06
5.406676723e-06
4.88762187e-06
4.335751168e-06
5.026160139e-06
4.743803987e-06
4.389835956e-06
3.99019646e-06
3.568770041e-06
4.059869079e-06
3.839710699e-06
3.566456556e-06
3.259462218e-06
2.935911152e-06
3.264422856e-06
3.095838345e-06
2.886636403e-06
2.651284617e-06
2.402415137e-06
2.601260968e-06
2.474303786e-06
2.315693482e-06
2.136292032e-06
1.945521822e-06
2.042749397e-06
1.949005616e-06
1.830391824e-06
1.695085954e-06
1.550169802e-06
1.570667388e-06
1.503122041e-06
1.416065471e-06
1.315655245e-06
1.207222851e-06
1.174142176e-06
1.126968594e-06
1.064663644e-06
9.918415203e-07
9.124958967e-07
8.474610549e-07
8.157954335e-07
7.726550959e-07
7.214497767e-07
6.651258164e-07
5.87157969e-07
5.669066765e-07
5.38235998e-07
5.03600345e-07
4.651150958e-07
3.888703737e-07
3.7662225e-07
3.584479832e-07
3.360496713e-07
3.108897019e-07
2.455339792e-07
2.385698885e-07
2.276270436e-07
2.13834328e-07
1.981583543e-07
1.475687033e-07
1.438661507e-07
1.376241272e-07
1.295556565e-07
1.202691345e-07
8.434988061e-08
8.252073928e-08
7.915369351e-08
7.467661759e-08
6.945331027e-08
4.584460195e-08
4.501222887e-08
4.329717436e-08
4.094296481e-08
3.815595062e-08
2.370727183e-08
2.336295148e-08
2.253877356e-08
2.136605094e-08
1.995569044e-08
1.168919625e-08
1.156251929e-08
1.118874044e-08
1.063490367e-08
9.957469862e-09
5.522253993e-09
5.482426058e-09
5.321959672e-09
5.073274195e-09
4.763599284e-09
2.525364557e-09
2.515530587e-09
2.4497154e-09
2.342788679e-09
2.207210713e-09
1.140984426e-09
1.139419619e-09
1.113031647e-09
1.06831254e-09
1.010692483e-09
5.28732077e-10
5.28497243e-10
5.176311814e-10
4.988506898e-10
4.74426908e-10
2.658968223e-10
2.654033992e-10
2.604194935e-10
2.520424299e-10
2.411958263e-10
1.535069527e-10
1.526922993e-10
1.499286258e-10
1.456625507e-10
1.402686673e-10
1.034268662e-10
1.024953862e-10
1.006434802e-10
9.80608202e-11
9.490629789e-11
7.872059152e-11
7.781789839e-11
7.641396417e-11
7.459736313e-11
7.244382911e-11
6.447507913e-11
6.365988539e-11
6.252756804e-11
6.112519998e-11
5.949398714e-11
5.522000389e-11
5.450916547e-11
5.356782098e-11
5.242598999e-11
5.111044794e-11
4.840426336e-11
4.778834274e-11
4.699234017e-11
4.603733804e-11
4.494236135e-11
4.307202634e-11
4.253680515e-11
4.185491653e-11
4.104204938e-11
4.0112574e-11
3.875790522e-11
3.828940109e-11
3.769855609e-11
3.699738677e-11
3.619705508e-11
3.519847069e-11
3.478460458e-11
3.4266863e-11
3.365463742e-11
3.295675477e-11
3.222659872e-11
3.185680246e-11
3.139758882e-11
3.085637279e-11
3.024022508e-11
2.972568041e-11
2.939079855e-11
2.897793544e-11
2.84930043e-11
2.794175145e-11
2.760037668e-11
2.729283093e-11
2.691633946e-11
2.647565311e-11
2.597550906e-11
2.57548786e-11
2.546927276e-11
2.512177782e-11
2.471633694e-11
2.425696939e-11
2.408675718e-11
2.382066518e-11
2.349814824e-11
2.312263771e-11
2.269768369e-11
2.249857144e-11
2.225221725e-11
2.195375612e-11
2.160635669e-11
2.121329412e-11
2.092100359e-11
2.069627113e-11
2.042313149e-11
2.010469479e-11
1.974407992e-11
1.932936056e-11
1.912816567e-11
1.888222271e-11
1.859455241e-11
1.826815909e-11
1.774840403e-11
1.757141758e-11
1.735356304e-11
1.709776733e-11
1.68068788e-11
1.623426599e-11
1.608005009e-11
1.588911525e-11
1.566417842e-11
1.540779587e-11
1.485337774e-11
1.471858861e-11
1.455135734e-11
1.435406317e-11
1.412895747e-11
1.364633147e-11
1.352665587e-11
1.33785596e-11
1.320404694e-11
1.300502265e-11
1.262960732e-11
1.252130958e-11
1.238808909e-11
1.223159754e-11
1.205344226e-11
1.184065551e-11
1.174052482e-11
1.161807703e-11
1.147471584e-11
1.131183461e-11
1.876668854e-12
1.423276451e-14
0
0
0
0
0
0
0
0
0
0
0
0
0
0
0
0
0
0
0
0
0
0
0
0
0
0
0
0
0
0
0
0
0
0
0
0
0
0
0
0
0
0
0
0
0
0
0
0
0
0
0
0
0
0
0
0
0
0
5.452006496e-11
2.214839219e-11
5.374806581e-12
8.681889539e-13
1.029985988e-13
0
0
0
0
0
0
0
0
0
0
0
0
0
0
0
0
0
0
0
0
0
0
0
0
0
0
0
0
0
0
0
0
0
0
0
0
0
0
0
0
0
0
0
0
0
0
0
0
0
0
0
0
0
0
0
6.015781028e-10
4.832005201e-10
9.225348418e-11
1.508819382e-11
3.665536491e-12
1.17453817e-12
3.743493754e-13
6.403163917e-14
0
0
0
0
0
0
0
0
0
0
0
0
0
0
0
0
0
0
0
0
0
0
0
0
0
0
0
0
0
0
0
0
0
0
0
0
0
0
0
0
0
0
0
0
0
0
0
0
0
0
0
0
2.036143215e-09
3.150848189e-09
1.293568931e-09
1.82345531e-10
3.734635334e-11
1.198421828e-11
4.822932659e-12
1.993621313e-12
7.274105828e-13
1.800209962e-13
0
0
0
0
0
0
0
0
0
0
0
0
0
0
0
0
0
0
0
0
0
0
0
0
0
0
0
0
0
0
0
0
0
0
0
0
0
0
0
0
0
0
0
0
0
0
0
0
0
0
2.539975095e-09
6.507913133e-09
8.071962529e-09
1.745178256e-09
2.800177577e-10
7.246170156e-11
2.653226259e-11
1.107565714e-11
4.604932674e-12
1.738839158e-12
5.207271769e-13
7.567377352e-14
0
0
0
0
0
0
0
0
0
0
0
0
0
0
0
0
0
0
0
0
0
0
0
0
0
0
0
0
0
0
0
0
0
0
0
0
0
0
0
0
0
0
0
0
0
0
0
0
3.736128525e-09
6.760958606e-09
1.656246349e-08
9.392726431e-09
1.558961219e-09
3.006493606e-10
9.108703131e-11
3.498143323e-11
1.429515981e-11
5.64073968e-12
1.988201955e-12
5.455200805e-13
6.775245093e-14
0
0
0
0
0
0
0
0
0
0
0
0
0
0
0
0
0
0
0
0
0
0
0
0
0
0
0
0
0
0
0
0
0
0
0
0
0
0
0
0
0
0
0
0
0
0
0
9.296285319e-09
4.830227487e-09
1.994271705e-08
2.483181334e-08
8.033918886e-09
1.234840358e-09
2.794719834e-10
9.246068374e-11
3.562524045e-11
1.388768104e-11
5.082956609e-12
1.61669556e-12
3.744408481e-13
1.969518703e-14
0
0
0
0
0
0
0
0
0
0
0
0
0
0
0
0
0
0
0
0
0
0
0
0
0
0
0
0
0
0
0
0
0
0
0
0
0
0
0
0
0
0
0
0
0
0
1.868925188e-08
2.966814733e-09
1.736977408e-08
3.619119239e-08
2.70915273e-08
5.473586828e-09
9.08857767e-10
2.408926973e-10
8.309213822e-11
3.092351463e-11
1.121689874e-11
3.714213357e-12
1.02163327e-12
1.74733961e-13
0
0
0
0
0
0
0
0
0
0
0
0
0
0
0
0
0
0
0
0
0
0
0
0
0
0
0
0
0
0
0
0
0
0
0
0
0
0
0
0
0
0
0
0
0
0
3.066641389e-08
2.816432841e-09
1.209591611e-08
3.97226413e-08
5.134044015e-08
2.142734317e-08
3.211032936e-09
6.303016484e-10
1.846559285e-10
6.341923794e-11
2.215561913e-11
7.308518833e-12
2.126288273e-12
4.689417609e-13
3.416469129e-14
0
0
0
0
0
0
0
0
0
0
0
0
0
0
0
0
0
0
0
0
0
0
0
0
0
0
0
0
0
0
0
0
0
0
0
0
0
0
0
0
0
0
0
0
0
4.715285128e-08
3.928353554e-09
6.585838475e-09
3.933440681e-08
6.764723262e-08
5.325268873e-08
1.147648288e-08
1.673645977e-09
3.950145872e-10
1.213011876e-10
3.999003269e-11
1.284615363e-11
3.778800886e-12
9.225546936e-13
1.32269902e-13
0
0
0
0
0
0
0
0
0
0
0
0
0
0
0
0
0
0
0
0
0
0
0
0
0
0
0
0
0
0
0
0
0
0
0
0
0
0
0
0
0
0
0
0
0
7.251238515e-08
6.683555078e-09
3.664001047e-09
3.387162752e-08
8.158250225e-08
9.299077895e-08
3.296605371e-08
4.924605197e-09
9.024810597e-10
2.330952715e-10
6.94132682e-11
2.101927422e-11
6.048115213e-12
1.533339349e-12
2.780718192e-13
5.203490645e-15
0
0
0
0
0
0
0
0
0
0
0
0
0
0
0
0
0
0
0
0
0
0
0
0
0
0
0
0
0
0
0
0
0
0
0
0
0
0
0
0
0
0
0
0
1.074987821e-07
1.118969077e-08
3.104954802e-09
2.57548774e-08
9.637384927e-08
1.369886679e-07
7.563916353e-08
1.261919948e-08
2.015372978e-09
4.273541148e-10
1.112732336e-10
3.103400019e-11
8.570618438e-12
2.192208784e-12
4.449217882e-13
3.070361238e-14
0
0
0
0
0
0
0
0
0
0
0
0
0
0
0
0
0
0
0
0
0
0
0
0
0
0
0
0
0
0
0
0
0
0
0
0
0
0
0
0
0
0
0
0
1.537831119e-07
1.801832395e-08
3.407698562e-09
1.760080352e-08
1.147144656e-07
1.931717151e-07
1.413339419e-07
2.982933163e-08
4.332234443e-09
7.558908988e-10
1.645658024e-10
4.113582535e-11
1.079415004e-11
2.768995523e-12
6.067215488e-13
6.677691663e-14
0
0
0
0
0
0
0
0
0
0
0
0
0
0
0
0
0
0
0
0
0
0
0
0
0
0
0
0
0
0
0
0
0
0
0
0
0
0
0
0
0
0
0
0
2.117722661e-07
2.788688922e-08
4.677956842e-09
1.50686993e-08
1.418696807e-07
2.681428071e-07
2.308135309e-07
7.019992e-08
9.270107546e-09
1.388637154e-09
2.440479641e-10
5.272813313e-11
1.295880583e-11
3.324468978e-12
7.764513261e-13
1.113853806e-13
0
0
0
0
0
0
0
0
0
0
0
0
0
0
0
0
0
0
0
0
0
0
0
0
0
0
0
0
0
0
0
0
0
0
0
0
0
0
0
0
0
0
0
0
2.894204798e-07
4.287660215e-08
7.673913649e-09
2.008823043e-08
2.008738471e-07
3.76981868e-07
3.356392696e-07
1.385203946e-07
2.038681101e-08
2.687107524e-09
3.671488769e-10
6.571986349e-11
1.493914196e-11
3.830995326e-12
9.431629542e-13
1.600564418e-13
0
0
0
0
0
0
0
0
0
0
0
0
0
0
0
0
0
0
0
0
0
0
0
0
0
0
0
0
0
0
0
0
0
0
0
0
0
0
0
0
0
0
0
0
3.923026055e-07
6.434128077e-08
1.338367109e-08
3.597293641e-08
3.427462546e-07
5.443497063e-07
4.478203395e-07
2.197792488e-07
4.27894498e-08
5.478382893e-09
5.790970858e-10
8.265954643e-11
1.721065251e-11
4.406518582e-12
1.127323098e-12
2.13317295e-13
2.466219372e-15
0
0
0
0
0
0
0
0
0
0
0
0
0
0
0
0
0
0
0
0
0
0
0
0
0
0
0
0
0
0
0
0
0
0
0
0
0
0
0
0
0
0
0
4.681587395e-07
8.396885697e-08
3.338276011e-08
1.424760381e-07
6.973781151e-07
7.847706843e-07
5.560967132e-07
2.805009679e-07
7.911896988e-08
1.15607069e-08
1.070059397e-09
1.2413698e-10
2.304090056e-11
5.645525861e-12
1.445107064e-12
2.951493797e-13
1.088751222e-14
0
0
0
0
0
0
0
0
0
0
0
0
0
0
0
0
0
0
0
0
0
0
0
0
0
0
0
0
0
0
0
0
0
0
0
0
0
0
0
0
0
0
0
4.574965767e-07
1.021880893e-07
1.590437522e-07
1.033904836e-06
1.298472544e-06
1.036700189e-06
6.375180161e-07
3.190553272e-07
1.199681752e-07
2.716163886e-08
3.173555768e-09
3.200285407e-10
4.509306719e-11
9.067131247e-12
2.135997028e-12
4.490023203e-13
3.654717e-14
0
0
0
0
0
0
0
0
0
0
0
0
0
0
0
0
0
0
0
0
0
0
0
0
0
0
0
0
0
0
0
0
0
0
0
0
0
0
0
0
0
0
0
9.270848386e-07
6.775344678e-07
2.814053691e-06
2.728929355e-06
1.949803448e-06
1.214752656e-06
6.901894462e-07
3.558750765e-07
1.605767719e-07
5.61245922e-08
1.187099345e-08
1.390930523e-09
1.444494089e-10
2.022356593e-11
3.838227285e-12
7.763010022e-13
9.736269193e-14
0
0
0
0
0
0
0
0
0
0
0
0
0
0
0
0
0
0
0
0
0
0
0
0
0
0
0
0
0
0
0
0
0
0
0
0
0
0
0
0
0
0
0
2.332514193e-05
1.192839607e-05
6.0366538e-06
3.557869568e-06
2.14430015e-06
1.27103183e-06
7.283850254e-07
3.958743252e-07
1.994062322e-07
8.886263091e-08
3.061108157e-08
6.32435088e-09
7.219173319e-10
7.262427477e-11
9.597736885e-12
1.62295846e-12
2.421728874e-13
1.694687733e-15
0
0
0
0
0
0
0
0
0
0
0
0
0
0
0
0
0
0
0
0
0
0
0
0
0
0
0
0
0
0
0
0
0
0
0
0
0
0
0
0
0
0
1.370674873e-05
8.716179778e-06
5.39591222e-06
3.362540481e-06
2.084256024e-06
1.274898775e-06
7.6185782e-07
4.391679407e-07
2.400851025e-07
1.213066853e-07
5.391909229e-08
1.839324136e-08
3.708919803e-09
4.02332155e-10
3.795947365e-11
4.584962508e-12
6.397609465e-13
4.594256623e-14
0
0
0
0
0
0
0
0
0
0
0
0
0
0
0
0
0
0
0
0
0
0
0
0
0
0
0
0
0
0
0
0
0
0
0
0
0
0
0
0
0
0
9.123559195e-06
6.550834078e-06
4.492269417e-06
3.000242204e-06
1.965340248e-06
1.263676517e-06
7.941231002e-07
4.838066904e-07
2.823387744e-07
1.550655134e-07
7.799409426e-08
3.420143625e-08
1.140233249e-08
2.199673582e-09
2.213005472e-10
1.921707635e-11
2.045581107e-12
2.116435208e-13
0
0
0
0
0
0
0
0
0
0
0
0
0
0
0
0
0
0
0
0
0
0
0
0
0
0
0
0
0
0
0
0
0
0
0
0
0
0
0
0
0
0
6.901178568e-06
5.229780539e-06
3.801631805e-06
2.682359738e-06
1.849595349e-06
1.247468983e-06
8.20984169e-07
5.243154486e-07
3.221558407e-07
1.880705392e-07
1.024073347e-07
5.053763889e-08
2.150325947e-08
6.859934361e-09
1.232412329e-09
1.118243094e-10
8.696892524e-12
7.868191885e-13
3.21142652e-14
0
0
0
0
0
0
0
0
0
0
0
0
0
0
0
0
0
0
0
0
0
0
0
0
0
0
0
0
0
0
0
0
0
0
0
0
0
0
0
0
0
5.523257232e-06
4.338888905e-06
3.285464611e-06
2.417235255e-06
1.736006906e-06
1.2180594e-06
8.328460597e-07
5.526532059e-07
3.536182582e-07
2.161654219e-07
1.245721713e-07
6.635046792e-08
3.166758144e-08
1.285223798e-08
3.838687101e-09
6.259077497e-10
4.980700226e-11
3.453821646e-12
2.267273893e-13
0
0
0
0
0
0
0
0
0
0
0
0
0
0
0
0
0
0
0
0
0
0
0
0
0
0
0
0
0
0
0
0
0
0
0
0
0
0
0
0
0
4.511159589e-06
3.624518764e-06
2.827158048e-06
2.160248998e-06
1.60486424e-06
1.161997658e-06
8.198280012e-07
5.613337802e-07
3.711133586e-07
2.352057901e-07
1.414513546e-07
7.954409701e-08
4.092573032e-08
1.862183683e-08
7.078398128e-09
1.930751117e-09
2.779585466e-10
1.950884849e-11
1.147466785e-12
2.389695609e-14
0
0
0
0
0
0
0
0
0
0
0
0
0
0
0
0
0
0
0
0
0
0
0
0
0
0
0
0
0
0
0
0
0
0
0
0
0
0
0
0
3.715048022e-06
3.058437438e-06
2.456141564e-06
1.924637922e-06
1.470569126e-06
1.093633511e-06
7.904177159e-07
5.545690087e-07
3.762575886e-07
2.453531409e-07
1.524915502e-07
8.928897968e-08
4.845089342e-08
2.378220665e-08
1.016991951e-08
3.558077455e-09
8.6453374e-10
1.064406276e-10
6.416439386e-12
2.721753271e-13
0
0
0
0
0
0
0
0
0
0
0
0
0
0
0
0
0
0
0
0
0
0
0
0
0
0
0
0
0
0
0
0
0
0
0
0
0
0
0
0
3.095165173e-06
2.590027749e-06
2.116533238e-06
1.689706294e-06
1.317357744e-06
1.001619787e-06
7.404789919e-07
5.307445666e-07
3.675147954e-07
2.451061794e-07
1.562830923e-07
9.434883625e-08
5.322512268e-08
2.754726807e-08
1.273331031e-08
5.041132335e-09
1.592330004e-09
3.338807731e-10
3.338645175e-11
1.606282524e-12
1.279527282e-14
0
0
0
0
0
0
0
0
0
0
0
0
0
0
0
0
0
0
0
0
0
0
0
0
0
0
0
0
0
0
0
0
0
0
0
0
0
0
0
2.570980007e-06
2.177894033e-06
1.803873474e-06
1.4609652e-06
1.156386208e-06
8.934071734e-07
6.722895419e-07
4.909771437e-07
3.465970479e-07
2.352883746e-07
1.529714587e-07
9.447848056e-08
5.483119869e-08
2.946609588e-08
1.436591931e-08
6.166012599e-09
2.221840732e-09
6.1815126e-10
1.073063096e-10
8.193940354e-12
2.455157091e-13
0
0
0
0
0
0
0
0
0
0
0
0
0
0
0
0
0
0
0
0
0
0
0
0
0
0
0
0
0
0
0
0
0
0
0
0
0
0
0
2.120176096e-06
1.813163148e-06
1.517460616e-06
1.242650988e-06
9.950304689e-07
7.780733737e-07
5.929655508e-07
4.391303889e-07
3.146666447e-07
2.171242904e-07
1.433853448e-07
9.002486289e-08
5.331869792e-08
2.94300286e-08
1.489521278e-08
6.757246438e-09
2.655686964e-09
8.574090244e-10
2.084087848e-10
2.958997709e-11
1.682770448e-12
4.395543892e-15
0
0
0
0
0
0
0
0
0
0
0
0
0
0
0
0
0
0
0
0
0
0
0
0
0
0
0
0
0
0
0
0
0
0
0
0
0
0
1.727771131e-06
1.488582799e-06
1.255705333e-06
1.036799674e-06
8.372389086e-07
6.603485858e-07
5.077172446e-07
3.795247968e-07
2.748112318e-07
1.917881123e-07
1.282895362e-07
8.167831499e-08
4.906452117e-08
2.760110073e-08
1.434838723e-08
6.770262236e-09
2.826176263e-09
1.001966453e-09
2.827611257e-10
5.740904991e-11
6.177543807e-12
1.816450405e-13
0
0
0
0
0
0
0
0
0
0
0
0
0
0
0
0
0
0
0
0
0
0
0
0
0
0
0
0
0
0
0
0
0
0
0
0
0
0
1.383585096e-06
1.198796884e-06
1.01710448e-06
8.44653643e-07
6.859691967e-07
5.44064446e-07
4.206191747e-07
3.161750406e-07
2.303371766e-07
1.619337028e-07
1.092397497e-07
7.026748824e-08
4.27603419e-08
2.436650735e-08
1.290644699e-08
6.262925911e-09
2.729031423e-09
1.036093494e-09
3.238826616e-10
7.501528361e-11
1.171160208e-11
7.781727919e-13
0
0
0
0
0
0
0
0
0
0
0
0
0
0
0
0
0
0
0
0
0
0
0
0
0
0
0
0
0
0
0
0
0
0
0
0
0
0
1.081662754e-06
9.410239414e-07
8.015134798e-07
6.68041239e-07
5.443513617e-07
4.330583039e-07
3.357374518e-07
2.530468967e-07
1.848594882e-07
1.304068057e-07
8.840940921e-08
5.724710326e-08
3.515681783e-08
2.029529383e-08
1.089716071e-08
5.398540754e-09
2.428304964e-09
9.684141683e-10
3.271474483e-10
8.632843206e-11
1.713523036e-11
1.983751539e-12
3.866041679e-14
0
0
0
0
0
0
0
0
0
0
0
0
0
0
0
0
0
0
0
0
0
0
0
0
0
0
0
0
0
0
0
0
0
0
0
0
0
8.199499679e-07
7.153096885e-07
6.107032385e-07
5.099921483e-07
4.16191385e-07
3.314675941e-07
2.571806935e-07
1.939573014e-07
1.41784044e-07
1.001163629e-07
6.800072246e-08
4.419352924e-08
2.730216918e-08
1.591237297e-08
8.66215974e-09
4.361780405e-09
2.01188294e-09
8.342583619e-10
3.00985394e-10
8.656467649e-11
1.603594795e-11
2.139418875e-12
9.159456052e-14
0
0
0
0
0
0
0
0
0
0
0
0
0
0
0
0
0
0
0
0
0
0
0
0
0
0
0
0
0
0
0
0
0
0
0
0
0
5.989635911e-07
5.234678454e-07
4.474841388e-07
3.73968918e-07
3.052641232e-07
2.430785749e-07
1.885043416e-07
1.420627835e-07
1.037752255e-07
7.324634584e-08
4.976187529e-08
3.239088574e-08
2.008402828e-08
1.178014684e-08
6.483584404e-09
3.3123285e-09
1.559183608e-09
6.669422171e-10
2.523395447e-10
7.778123149e-11
1.582741898e-11
4.915762611e-13
1.096796634e-14
0
0
0
0
0
0
0
0
0
0
0
0
0
0
0
0
0
0
0
0
0
0
0
0
0
0
0
0
0
0
0
0
0
0
0
0
0
4.195842615e-07
3.671555137e-07
3.140590897e-07
2.624771372e-07
2.141532334e-07
1.7036922e-07
1.319499431e-07
9.929371291e-08
7.242381416e-08
5.105339576e-08
3.466089451e-08
2.256978107e-08
1.402662686e-08
8.269587191e-09
4.591517132e-09
2.379333935e-09
1.1398775e-09
5.009890915e-10
1.979158369e-10
6.669692941e-11
1.501543326e-11
4.276064508e-13
4.823642613e-15
0
0
0
0
0
0
0
0
0
0
0
0
0
0
0
0
0
0
0
0
0
0
0
0
0
0
0
0
0
0
0
0
0
0
0
0
0
2.809038941e-07
2.460526033e-07
2.105432645e-07
1.759178786e-07
1.434155414e-07
1.139506657e-07
8.811273775e-08
6.618644334e-08
4.818840785e-08
3.391593309e-08
2.30029411e-08
1.497842348e-08
9.322783251e-09
5.517545697e-09
3.085870174e-09
1.619199566e-09
7.897174628e-10
3.557098599e-10
1.459044084e-10
5.232787275e-11
1.321301202e-11
4.719277395e-13
0
0
0
0
0
0
0
0
0
0
0
0
0
0
0
0
0
0
0
0
0
0
0
0
0
0
0
0
0
0
0
0
0
0
0
0
0
0
1.793309844e-07
1.572367044e-07
1.345866487e-07
1.124189819e-07
9.157170803e-08
7.26646124e-08
5.609722282e-08
4.206183039e-08
3.056905287e-08
2.148185229e-08
1.455539802e-08
9.477649432e-09
5.907930227e-09
3.510082499e-09
1.977331442e-09
1.049756621e-09
5.215693547e-10
2.408243855e-10
1.026262904e-10
3.927389881e-11
1.210567968e-11
6.176558325e-13
0
0
0
0
0
0
0
0
0
0
0
0
0
0
0
0
0
0
0
0
0
0
0
0
0
0
0
0
0
0
0
0
0
0
0
0
0
0
1.09024841e-07
9.569627425e-08
8.194550698e-08
6.843654573e-08
5.570742252e-08
4.415683157e-08
3.404173508e-08
2.548545691e-08
1.849457898e-08
1.298146636e-08
8.790953825e-09
5.726927222e-09
3.577258831e-09
2.134613934e-09
1.211746342e-09
6.514859383e-10
3.301141613e-10
1.56808992e-10
6.957407332e-11
2.834601892e-11
9.939858784e-12
1.950877664e-12
0
0
0
0
0
0
0
0
0
0
0
0
0
0
0
0
0
0
0
0
0
0
0
0
0
0
0
0
0
0
0
0
0
0
0
0
0
0
6.307449446e-08
5.543361441e-08
4.749838568e-08
3.96716115e-08
3.228076958e-08
2.556900939e-08
1.969314939e-08
1.472843203e-08
1.067898372e-08
7.492173527e-09
5.07512414e-09
3.311187183e-09
2.0751821e-09
1.245760406e-09
7.142695058e-10
3.900749593e-10
2.02333666e-10
9.958183883e-11
4.637285032e-11
2.029682324e-11
7.974371817e-12
2.49268405e-12
0
0
0
0
0
0
0
0
0
0
0
0
0
0
0
0
0
0
0
0
0
0
0
0
0
0
0
0
0
0
0
0
0
0
0
0
0
0
3.472148023e-08
3.056200193e-08
2.621222571e-08
2.190358655e-08
1.782490161e-08
1.411670716e-08
1.086982228e-08
8.127986054e-09
5.893996231e-09
4.138193236e-09
2.808172012e-09
1.838351958e-09
1.158779574e-09
7.020639581e-10
4.082963047e-10
2.277818222e-10
1.219508486e-10
6.282962966e-11
3.109488787e-11
1.470480812e-11
6.321668781e-12
2.185180273e-12
1.102485009e-13
0
0
0
0
0
0
0
0
0
0
0
0
0
0
0
0
0
0
0
0
0
0
0
0
0
0
0
0
0
0
0
0
0
0
0
0
0
1.820090076e-08
1.605097398e-08
1.378613995e-08
1.15323116e-08
9.392594644e-09
7.443996981e-09
5.736466339e-09
4.29427131e-09
3.119378301e-09
2.196156203e-09
1.496769138e-09
9.863928437e-10
6.280340776e-10
3.862119452e-10
2.295533263e-10
1.321369841e-10
7.392470448e-11
4.033480339e-11
2.162778051e-11
1.121872548e-11
5.457870422e-12
2.22235565e-12
6.914549435e-13
0
0
0
0
0
0
0
0
0
0
0
0
0
0
0
0
0
0
0
0
0
0
0
0
0
0
0
0
0
0
0
0
0
0
0
0
0
9.105966257e-09
8.049959891e-09
6.928803571e-09
5.807372294e-09
4.739013893e-09
3.763758376e-09
2.907713493e-09
2.183783888e-09
1.593328062e-09
1.1286818e-09
7.759560342e-10
5.176901147e-10
3.35381466e-10
2.113180759e-10
1.298978613e-10
7.824711207e-11