/*--------------------------------*- C++ -*----------------------------------*\
  =========                 |
  \\      /  F ield         | OpenFOAM: The Open Source CFD Toolbox
   \\    /   O peration     | Website:  https://openfoam.org
    \\  /    A nd           | Version:  10
     \\/     M anipulation  |
\*---------------------------------------------------------------------------*/
FoamFile
{
    format      ascii;
    class       volScalarField;
    location    "0.02499901733";
    object      C3H8_0;
}
// * * * * * * * * * * * * * * * * * * * * * * * * * * * * * * * * * * * * * //

dimensions      [0 0 0 0 0 0 0];

internalField   nonuniform List<scalar> 
5170
(
9.621915178e-14
9.604810793e-14
9.492594381e-14
8.700680025e-14
6.791086567e-15
1.936434739e-13
1.931087521e-13
1.907177171e-13
1.785548293e-13
1.09803258e-13
2.906480393e-13
2.897585743e-13
2.862554777e-13
2.717054463e-13
2.146068467e-13
3.868648862e-13
3.856580075e-13
3.813181394e-13
3.657882825e-13
3.202189609e-13
4.822110052e-13
4.807391649e-13
4.758719561e-13
4.605129843e-13
4.263667617e-13
5.766100026e-13
5.749693464e-13
5.699007127e-13
5.557721508e-13
5.329985288e-13
6.700653253e-13
6.683413689e-13
6.633913602e-13
6.515360958e-13
6.40070234e-13
7.626544561e-13
7.609649881e-13
7.564343605e-13
7.477200293e-13
7.475364444e-13
8.544422847e-13
8.528862313e-13
8.491012923e-13
8.443464973e-13
8.553599058e-13
9.455346004e-13
9.441822852e-13
9.413630977e-13
9.414660779e-13
9.635432657e-13
1.036000181e-12
1.03492295e-12
1.033256704e-12
1.039096536e-12
1.072045461e-12
1.125856661e-12
1.125143304e-12
1.125014456e-12
1.13721125e-12
1.180756781e-12
1.21515502e-12
1.214896133e-12
1.216748069e-12
1.235832831e-12
1.289596067e-12
1.303951277e-12
1.304241014e-12
1.308473278e-12
1.334982561e-12
1.398497144e-12
1.392292148e-12
1.393244663e-12
1.400232192e-12
1.434636114e-12
1.507373344e-12
1.480195403e-12
1.481937046e-12
1.492195255e-12
1.534842045e-12
1.616000728e-12
1.567701206e-12
1.570374038e-12
1.584297738e-12
1.635435909e-12
1.724511851e-12
1.654874253e-12
1.658697301e-12
1.677223325e-12
1.739331911e-12
1.843133213e-12
1.749195951e-12
1.776888451e-12
1.973274199e-12
3.316311691e-12
7.929948999e-12
4.059135809e-12
1.427990765e-11
1.014724106e-10
7.067124046e-10
3.420756783e-09
0
4.551496818e-36
2.439459949e-36
0
0
0
0
0
0
0
0
0
0
0
0
0
0
0
0
0
0
0
0
0
0
0
0
0
0
0
0
0
0
0
0
0
0
0
0
0
0
0
0
0
0
0
0
0
0
0
0
0
0
0
0
0
0
0
0
0
0
0
0
0
0
0
0
0
0
0
0
0
0
0
0
0
0
0
0
0
0
0
0
0
0
0
0
0
0
0
1.964641915e-10
0
0
0
0
5.910299248e-08
8.348449273e-09
9.866901767e-10
4.217103764e-14
0
8.599442301e-11
6.574864513e-10
1.011986243e-08
1.508732377e-07
2.020827059e-06
4.658675337e-10
3.145829485e-09
3.860287085e-08
4.069071254e-07
3.121910055e-06
1.571986517e-09
9.559630694e-09
9.634230058e-08
7.703873888e-07
4.008741879e-06
4.161458633e-09
2.290135162e-08
1.941731172e-07
1.229733144e-06
4.731677106e-06
9.574427275e-09
4.811015013e-08
3.475530424e-07
1.754567135e-06
5.269719311e-06
2.02332069e-08
9.372644658e-08
5.711546314e-07
2.296182529e-06
5.686574632e-06
3.999501688e-08
1.697876961e-07
8.638697265e-07
2.827097586e-06
6.077403433e-06
7.475265821e-08
2.882347674e-07
1.219343765e-06
3.332786966e-06
6.427736627e-06
1.336996691e-07
4.626230805e-07
1.623451039e-06
3.797704861e-06
6.704063696e-06
2.301628557e-07
7.033096855e-07
2.058039062e-06
4.221465081e-06
6.920386354e-06
3.836877396e-07
1.019285285e-06
2.507225359e-06
4.608661635e-06
7.108813316e-06
6.388544728e-07
1.413234237e-06
2.957490502e-06
4.971944891e-06
7.287222642e-06
1.004717307e-06
1.867680006e-06
3.405949565e-06
5.310961492e-06
7.435445029e-06
1.509094839e-06
2.383517858e-06
3.858159593e-06
5.629997802e-06
7.558011128e-06
2.150865981e-06
2.959971955e-06
4.324079342e-06
5.946459194e-06
7.687947349e-06
2.879230387e-06
3.594479712e-06
4.826599439e-06
6.297110628e-06
7.874531815e-06
3.723049362e-06
4.329503701e-06
5.417008692e-06
6.746640245e-06
8.198674277e-06
4.681439597e-06
5.203082056e-06
6.196374817e-06
7.47887766e-06
8.947153931e-06
5.861534347e-06
6.366851393e-06
7.382307034e-06
8.774583405e-06
1.047167826e-05
7.447972386e-06
7.954502741e-06
8.991370943e-06
1.042785799e-05
1.216707169e-05
9.35411975e-06
9.757862631e-06
1.057186986e-05
1.1661772e-05
1.291117174e-05
1.067567569e-05
1.088456686e-05
1.130725694e-05
1.18590466e-05
1.245215088e-05
1.070952016e-05
1.077785717e-05
1.090851036e-05
1.106063862e-05
1.118958657e-05
9.736089095e-06
9.732757145e-06
9.714232093e-06
9.66499125e-06
9.568660813e-06
8.300062315e-06
8.271333194e-06
8.201794536e-06
8.088224193e-06
7.927225236e-06
6.811424049e-06
6.778588499e-06
6.703104673e-06
6.585552425e-06
6.427240173e-06
5.539537975e-06
5.510870767e-06
5.44521603e-06
5.344436377e-06
5.210991749e-06
4.469669985e-06
4.446452298e-06
4.393613018e-06
4.313040914e-06
4.207113432e-06
3.580177371e-06
3.562112953e-06
3.521135231e-06
3.458819673e-06
3.377114827e-06
2.838135929e-06
2.824458411e-06
2.793445965e-06
2.746301734e-06
2.684520083e-06
2.2157152e-06
2.20561118e-06
2.182657496e-06
2.147717947e-06
2.101897023e-06
1.693113572e-06
1.685843149e-06
1.6692569e-06
1.643944305e-06
1.610702274e-06
1.257584428e-06
1.252512689e-06
1.240868735e-06
1.223033237e-06
1.199569139e-06
9.016723477e-07
8.982678257e-07
8.903830674e-07
8.782493796e-07
8.622551847e-07
6.203718078e-07
6.181902863e-07
6.130816487e-07
6.051751542e-07
5.947306772e-07
4.078512674e-07
4.065268463e-07
4.033807684e-07
3.984780672e-07
3.919863433e-07
2.55528079e-07
2.547700828e-07
2.529374666e-07
2.500579755e-07
2.462350121e-07
1.523323266e-07
1.519255154e-07
1.509194155e-07
1.493226795e-07
1.471962876e-07
8.633881715e-08
8.613502706e-08
8.561621526e-08
8.478263249e-08
8.366850631e-08
4.651602289e-08
4.642140336e-08
4.617102624e-08
4.57624658e-08
4.52139975e-08
2.383919865e-08
2.3798818e-08
2.36861797e-08
2.349869501e-08
2.324563543e-08
1.164844928e-08
1.163281989e-08
1.15857669e-08
1.150537861e-08
1.139612461e-08
5.45528685e-09
5.449891586e-09
5.431671643e-09
5.399443516e-09
5.355253551e-09
2.475887622e-09
2.474263868e-09
2.467680347e-09
2.455491204e-09
2.43859086e-09
1.113135282e-09
1.112701971e-09
1.110398225e-09
1.105905993e-09
1.099599656e-09
5.159052954e-10
5.157695173e-10
5.148936231e-10
5.131356903e-10
5.106480817e-10
2.613304645e-10
2.612387772e-10
2.608010199e-10
2.599601915e-10
2.587780326e-10
1.528015659e-10
1.527072846e-10
1.524049842e-10
1.518753443e-10
1.511442385e-10
1.042511797e-10
1.041563896e-10
1.039095468e-10
1.035064087e-10
1.029589384e-10
8.00059581e-11
7.991788227e-11
7.970762856e-11
7.937704384e-11
7.893196901e-11
6.580613214e-11
6.572704464e-11
6.554682903e-11
6.526841961e-11
6.489581432e-11
5.643505869e-11
5.636745297e-11
5.621451584e-11
5.59794691e-11
5.566522848e-11
4.948085693e-11
4.942261313e-11
4.929182983e-11
4.909153565e-11
4.882396887e-11
4.401938157e-11
4.396897541e-11
4.385628935e-11
4.368407075e-11
4.345408107e-11
3.959440868e-11
3.955041746e-11
3.945237702e-11
3.930276451e-11
3.910302616e-11
3.594249428e-11
3.590374082e-11
3.581758548e-11
3.5686265e-11
3.551097558e-11
3.289549908e-11
3.286095427e-11
3.278432653e-11
3.266765574e-11
3.251194624e-11
3.033512965e-11
3.030390415e-11
3.023478823e-11
3.012967144e-11
2.99894154e-11
2.816350708e-11
2.813486198e-11
2.807159058e-11
2.79754712e-11
2.78472632e-11
2.628063194e-11
2.62540442e-11
2.619542077e-11
2.610644855e-11
2.598780895e-11
2.45782385e-11
2.455346532e-11
2.449890391e-11
2.441614856e-11
2.43058257e-11
2.295377596e-11
2.293083387e-11
2.28803135e-11
2.280369376e-11
2.270155591e-11
2.133509899e-11
2.13141661e-11
2.126803247e-11
2.119803081e-11
2.110469865e-11
1.969815393e-11
1.967941228e-11
1.963804413e-11
1.957521553e-11
1.949141626e-11
1.807076627e-11
1.805428647e-11
1.80178411e-11
1.79624245e-11
1.788847394e-11
1.651357683e-11
1.649922855e-11
1.646744928e-11
1.641908541e-11
1.635452143e-11
1.509707025e-11
1.508453662e-11
1.505675835e-11
1.501446366e-11
1.495798462e-11
1.38631852e-11
1.385206593e-11
1.382744023e-11
1.378996115e-11
1.37399175e-11
1.282694194e-11
1.281687894e-11
1.279463138e-11
1.276080643e-11
1.271566038e-11
1.202407224e-11
1.201476749e-11
1.199422786e-11
1.196302903e-11
1.192140446e-11
7.327084933e-06
7.842598986e-06
8.299357099e-06
8.548226035e-06
8.600590383e-06
8.635216406e-06
8.77948992e-06
8.895252458e-06
8.907475425e-06
8.883811238e-06
8.887761646e-06
8.911248676e-06
8.89285461e-06
8.850848646e-06
8.844827526e-06
8.927732022e-06
9.186584915e-06
9.98479801e-06
1.175528827e-05
1.345529889e-05
1.377117197e-05
1.282339117e-05
1.12419594e-05
9.476510793e-06
7.798427281e-06
6.305183729e-06
5.109836266e-06
4.127276615e-06
3.315723442e-06
2.638251587e-06
2.06774963e-06
1.58611432e-06
1.182402308e-06
8.507275763e-07
5.873489152e-07
3.875105562e-07
2.436798258e-07
1.458294019e-07
8.298705556e-08
4.489959005e-08
2.311273271e-08
1.134541403e-08
5.338181485e-09
2.433679741e-09
1.098397486e-09
5.102903695e-10
2.58497417e-10
1.508224819e-10
1.026244153e-10
7.861772487e-11
6.461484609e-11
5.542215136e-11
4.861405228e-11
4.327207055e-11
3.894396335e-11
3.537066011e-11
3.23867198e-11
2.987611902e-11
2.774328003e-11
2.589126478e-11
2.421587793e-11
2.261827275e-11
2.102872266e-11
1.942339919e-11
1.782865056e-11
1.630241996e-11
1.491244777e-11
1.369950185e-11
1.267908666e-11
1.188758696e-11
1.756772792e-05
1.285924767e-06
3.690643649e-08
8.861927105e-10
1.695194554e-11
1.621769222e-05
8.936963853e-06
5.199258333e-07
1.572095369e-08
3.697656397e-10
1.59061397e-05
2.194609438e-05
1.955569233e-06
1.017648754e-07
3.122229592e-09
1.517942542e-05
2.244332274e-05
2.754228381e-06
2.119850054e-07
1.006827701e-08
1.423733873e-05
2.022248897e-05
3.195292208e-06
3.292319348e-07
2.355694943e-08
1.354032691e-05
1.906569553e-05
5.510900994e-06
6.88198972e-07
6.264952776e-08
1.323169401e-05
1.885805691e-05
9.262109224e-06
1.324050781e-06
1.475372135e-07
1.288908167e-05
1.78617879e-05
1.180305109e-05
1.894508688e-06
2.466374225e-07
1.238503902e-05
1.645389831e-05
1.278870948e-05
2.256328264e-06
3.358777643e-07
1.193096061e-05
1.550643274e-05
1.360548005e-05
2.676659879e-06
4.419111383e-07
1.163094291e-05
1.504819772e-05
1.421320126e-05
3.30718341e-06
5.955770385e-07
1.139933647e-05
1.454105256e-05
1.410155646e-05
4.114279537e-06
7.959066121e-07
1.109502049e-05
1.366182158e-05
1.335876481e-05
5.016503876e-06
1.035368077e-06
1.07824943e-05
1.301441929e-05
1.281152139e-05
5.897521984e-06
1.300306775e-06
1.056634434e-05
1.262122201e-05
1.260313963e-05
6.764314386e-06
1.62284702e-06
1.04972894e-05
1.24700649e-05
1.268704238e-05
7.64554675e-06
2.021316064e-06
1.065628045e-05
1.256718176e-05
1.290882802e-05
8.156467932e-06
2.266637149e-06
1.150547943e-05
1.356931052e-05
1.374627868e-05
8.021460049e-06
2.163496774e-06
1.366770861e-05
1.696844151e-05
1.927941251e-05
1.283391265e-05
3.619216091e-06
1.536976406e-05
1.870834493e-05
2.26184903e-05
2.678062986e-05
2.873464859e-05
1.5030557e-05
1.671873286e-05
1.79015752e-05
1.819974559e-05
1.691024119e-05
1.337973093e-05
1.381839296e-05
1.364631201e-05
1.276440342e-05
1.119980866e-05
1.135002021e-05
1.116603064e-05
1.057402447e-05
9.603993438e-06
8.355069599e-06
9.381479647e-06
8.990569436e-06
8.354237172e-06
7.522582731e-06
6.571078766e-06
7.647297416e-06
7.242617679e-06
6.685245836e-06
6.019298904e-06
5.294560426e-06
6.157328528e-06
5.808396239e-06
5.359806744e-06
4.845539634e-06
4.299136257e-06
4.986201266e-06
4.705834837e-06
4.354755648e-06
3.958619942e-06
3.541011542e-06
4.029392626e-06
3.810816299e-06
3.539707222e-06
3.235219247e-06
2.914345207e-06
3.240757941e-06
3.073378981e-06
2.865749798e-06
2.632202595e-06
2.385247838e-06
2.582467992e-06
2.45642642e-06
2.298982732e-06
2.120907065e-06
1.93154265e-06
2.027536376e-06
1.934490695e-06
1.816754497e-06
1.682443314e-06
1.538585153e-06
1.558217636e-06
1.491205379e-06
1.404816671e-06
1.305165487e-06
1.197545719e-06
1.163971094e-06
1.117203332e-06
1.055410003e-06
9.831738053e-07
9.044609294e-07
8.392946719e-07
8.079333611e-07
7.651832105e-07
7.144298848e-07
6.585988228e-07
5.808126886e-07
5.607821473e-07
5.3240233e-07
4.981087496e-07
4.600002998e-07
3.841550952e-07
3.720590938e-07
3.540930069e-07
3.319440349e-07
3.070616837e-07
2.422066256e-07
2.353408974e-07
2.24539339e-07
2.109195164e-07
1.954382637e-07
1.453472135e-07
1.417038875e-07
1.355522234e-07
1.275970448e-07
1.184397226e-07
8.294896807e-08
8.115284706e-08
7.784008731e-08
7.343296235e-08
6.829050649e-08
4.501080307e-08
4.419535141e-08
4.251087316e-08
4.019729797e-08
3.745793421e-08
2.323902891e-08
2.290259283e-08
2.209453294e-08
2.094399423e-08
1.95600564e-08
1.144104839e-08
1.131764815e-08
1.095180823e-08
1.040934569e-08
9.745693122e-09
5.398060124e-09
5.359401509e-09
5.202583603e-09
4.959374919e-09
4.65646093e-09
2.466572689e-09
2.457062215e-09
2.392809687e-09
2.288360502e-09
2.155904729e-09
1.11458153e-09
1.113057425e-09
1.087292997e-09
1.04362841e-09
9.873681002e-10
5.174216789e-10
5.171601961e-10
5.065264179e-10
4.881707034e-10
4.643069142e-10
2.612281082e-10
2.607071898e-10
2.558041371e-10
2.475892143e-10
2.36962601e-10
1.51613278e-10
1.507823099e-10
1.480459165e-10
1.438396821e-10
1.385289855e-10
1.026462295e-10
1.017071891e-10
9.986441439e-11
9.730375596e-11
9.418017005e-11
7.837655832e-11
7.747076146e-11
7.607027235e-11
7.426201399e-11
7.212044347e-11
6.430605529e-11
6.349002714e-11
6.235932686e-11
6.096046116e-11
5.933416634e-11
5.512248865e-11
5.441149801e-11
5.347104131e-11
5.23309039e-11
5.101767258e-11
4.834100603e-11
4.772511994e-11
4.692965766e-11
4.597561095e-11
4.488187997e-11
4.302791592e-11
4.249273325e-11
4.181117775e-11
4.099887392e-11
4.007014917e-11
3.872597422e-11
3.825749505e-11
3.766684759e-11
3.696601659e-11
3.616614382e-11
3.517503648e-11
3.476115545e-11
3.424351117e-11
3.363147451e-11
3.293385787e-11
3.220946112e-11
3.18396058e-11
3.138040926e-11
3.083927e-11
3.022324734e-11
2.971343767e-11
2.937844944e-11
2.896552873e-11
2.848057668e-11
2.792933727e-11
2.759197097e-11
2.728426975e-11
2.690764983e-11
2.646685901e-11
2.596662492e-11
2.574924918e-11
2.546345568e-11
2.511578448e-11
2.471017211e-11
2.42506332e-11
2.40827253e-11
2.381643685e-11
2.349372012e-11
2.311800402e-11
2.269283794e-11
2.249493826e-11
2.224840929e-11
2.194975974e-11
2.160215933e-11
2.120888546e-11
2.091683386e-11
2.069197393e-11
2.041868817e-11
2.010008815e-11
1.973929687e-11
1.932422975e-11
1.912295565e-11
1.887691718e-11
1.858913795e-11
1.826262566e-11
1.774244687e-11
1.756542205e-11
1.734751824e-11
1.709166463e-11
1.680072311e-11
1.622806208e-11
1.607382658e-11
1.588287188e-11
1.565789892e-11
1.540149575e-11
1.48476494e-11
1.471283919e-11
1.454559324e-11
1.434828874e-11
1.412317777e-11
1.36416762e-11
1.352196215e-11
1.337383477e-11
1.319929759e-11
1.300025311e-11
1.262618697e-11
1.251782986e-11
1.238455473e-11
1.222801196e-11
1.204980981e-11
1.18381894e-11
1.173798902e-11
1.161547284e-11
1.147204388e-11
1.130909735e-11
1.880681191e-12
1.508410371e-14
0
0
0
0
0
0
0
0
0
0
0
0
0
0
0
0
0
0
0
0
0
0
0
0
0
0
0
0
0
0
0
0
0
0
0
0
0
0
0
0
0
0
0
0
0
0
0
0
0
0
0
0
0
0
0
0
0
0
5.462346267e-11
2.223691341e-11
5.395930697e-12
8.711316737e-13
1.036455571e-13
0
0
0
0
0
0
0
0
0
0
0
0
0
0
0
0
0
0
0
0
0
0
0
0
0
0
0
0
0
0
0
0
0
0
0
0
0
0
0
0
0
0
0
0
0
0
0
0
0
0
0
0
0
0
0
6.028716951e-10
4.863147073e-10
9.255682865e-11
1.511849042e-11
3.671294068e-12
1.175940375e-12
3.745724474e-13
6.395249306e-14
0
0
0
0
0
0
0
0
0
0
0
0
0
0
0
0
0
0
0
0
0
0
0
0
0
0
0
0
0
0
0
0
0
0
0
0
0
0
0
0
0
0
0
0
0
0
0
0
0
0
0
0
2.040874477e-09
3.174052656e-09
1.299014283e-09
1.827350515e-10
3.739856899e-11
1.199574329e-11
4.824178436e-12
1.992125386e-12
7.257903642e-13
1.790907489e-13
0
0
0
0
0
0
0
0
0
0
0
0
0
0
0
0
0
0
0
0
0
0
0
0
0
0
0
0
0
0
0
0
0
0
0
0
0
0
0
0
0
0
0
0
0
0
0
0
0
0
2.544970953e-09
6.55477625e-09
8.11845227e-09
1.750192392e-09
2.804177355e-10
7.251737349e-11
2.653290448e-11
1.106524911e-11
4.595086447e-12
1.732395428e-12
5.174939726e-13
7.449504108e-14
0
0
0
0
0
0
0
0
0
0
0
0
0
0
0
0
0
0
0
0
0
0
0
0
0
0
0
0
0
0
0
0
0
0
0
0
0
0
0
0
0
0
0
0
0
0
0
0
3.734984484e-09
6.814045907e-09
1.667760257e-08
9.431328389e-09
1.561222185e-09
3.007130197e-10
9.10354525e-11
3.492926613e-11
1.425659411e-11
5.617085833e-12
1.975955167e-12
5.403297796e-13
6.620423452e-14
0
0
0
0
0
0
0
0
0
0
0
0
0
0
0
0
0
0
0
0
0
0
0
0
0
0
0
0
0
0
0
0
0
0
0
0
0
0
0
0
0
0
0
0
0
0
0
9.262864086e-09
4.863005381e-09
2.009435829e-08
2.49853183e-08
8.056343846e-09
1.235196532e-09
2.79302904e-10
9.231875902e-11
3.552608164e-11
1.382764509e-11
5.051427392e-12
1.602523991e-12
3.693565209e-13
1.866573533e-14
0
0
0
0
0
0
0
0
0
0
0
0
0
0
0
0
0
0
0
0
0
0
0
0
0
0
0
0
0
0
0
0
0
0
0
0
0
0
0
0
0
0
0
0
0
0
1.864859049e-08
2.981653101e-09
1.751753153e-08
3.645585242e-08
2.722281129e-08
5.476252579e-09
9.07871297e-10
2.404611921e-10
8.284470403e-11
3.078060883e-11
1.114270317e-11
3.680540575e-12
1.008672918e-12
1.709509202e-13
0
0
0
0
0
0
0
0
0
0
0
0
0
0
0
0
0
0
0
0
0
0
0
0
0
0
0
0
0
0
0
0
0
0
0
0
0
0
0
0
0
0
0
0
0
0
3.062634982e-08
2.824315099e-09
1.221984038e-08
4.005919001e-08
5.170219577e-08
2.146419869e-08
3.204729359e-09
6.287231483e-10
1.840072099e-10
6.308692389e-11
2.199126112e-11
7.235800518e-12
2.098253105e-12
4.600428293e-13
3.239665755e-14
0
0
0
0
0
0
0
0
0
0
0
0
0
0
0
0
0
0
0
0
0
0
0
0
0
0
0
0
0
0
0
0
0
0
0
0
0
0
0
0
0
0
0
0
0
4.7147754e-08
3.93423153e-09
6.658936885e-09
3.974293596e-08
6.826620588e-08
5.343985791e-08
1.143916803e-08
1.667517306e-09
3.933481108e-10
1.205696266e-10
3.965190197e-11
1.270260795e-11
3.724735961e-12
9.050556791e-13
1.279431304e-13
0
0
0
0
0
0
0
0
0
0
0
0
0
0
0
0
0
0
0
0
0
0
0
0
0
0
0
0
0
0
0
0
0
0
0
0
0
0
0
0
0
0
0
0
0
7.25772e-08
6.691604883e-09
3.707038529e-09
3.431522091e-08
8.247084594e-08
9.357650925e-08
3.286805288e-08
4.895971664e-09
8.971801214e-10
2.312812946e-10
6.868719782e-11
2.073847326e-11
5.948989207e-12
1.502217639e-12
2.700052271e-13
4.39767846e-15
0
0
0
0
0
0
0
0
0
0
0
0
0
0
0
0
0
0
0
0
0
0
0
0
0
0
0
0
0
0
0
0
0
0
0
0
0
0
0
0
0
0
0
0
1.076389769e-07
1.121224473e-08
3.149026903e-09
2.623734386e-08
9.77055445e-08
1.383001278e-07
7.550131836e-08
1.250426158e-08
1.995997003e-09
4.226503829e-10
1.097547611e-10
3.051954264e-11
8.405021714e-12
2.143068628e-12
4.320925048e-13
2.846295807e-14
0
0
0
0
0
0
0
0
0
0
0
0
0
0
0
0
0
0
0
0
0
0
0
0
0
0
0
0
0
0
0
0
0
0
0
0
0
0
0
0
0
0
0
0
1.540505314e-07
1.806731202e-08
3.459827028e-09
1.806081621e-08
1.167962091e-07
1.956032981e-07
1.415033171e-07
2.937871155e-08
4.289030455e-09
7.443917588e-10
1.615934525e-10
4.029368448e-11
1.055361898e-11
2.702311485e-12
5.894266367e-13
6.322111403e-14
0
0
0
0
0
0
0
0
0
0
0
0
0
0
0
0
0
0
0
0
0
0
0
0
0
0
0
0
0
0
0
0
0
0
0
0
0
0
0
0
0
0
0
0
2.121350439e-07
2.797447559e-08
4.7385796e-09
1.548589801e-08
1.452562958e-07
2.722931055e-07
2.31580534e-07
6.924236721e-08
9.116918596e-09
1.360319457e-09
2.382949644e-10
5.140377228e-11
1.263260566e-11
3.241197392e-12
7.551153094e-13
1.065732111e-13
0
0
0
0
0
0
0
0
0
0
0
0
0
0
0
0
0
0
0
0
0
0
0
0
0
0
0
0
0
0
0
0
0
0
0
0
0
0
0
0
0
0
0
0
2.90363365e-07
4.309638681e-08
7.779114005e-09
2.069143917e-08
2.071745707e-07
3.837211833e-07
3.370158159e-07
1.368692009e-07
1.995015323e-08
2.612181664e-09
3.558797372e-10
6.37521841e-11
1.453423293e-11
3.73609248e-12
9.189841119e-13
1.542612627e-13
0
0
0
0
0
0
0
0
0
0
0
0
0
0
0
0
0
0
0
0
0
0
0
0
0
0
0
0
0
0
0
0
0
0
0
0
0
0
0
0
0
0
0
0
3.931347709e-07
6.456332068e-08
1.362383818e-08
3.745247398e-08
3.561533151e-07
5.541934391e-07
4.490760172e-07
2.174293984e-07
4.186051364e-08
5.296714648e-09
5.575098831e-10
7.995812219e-11
1.676292723e-11
4.308374699e-12
1.10176791e-12
2.068220072e-13
1.992679979e-15
0
0
0
0
0
0
0
0
0
0
0
0
0
0
0
0
0
0
0
0
0
0
0
0
0
0
0
0
0
0
0
0
0
0
0
0
0
0
0
0
0
0
0
4.658964075e-07
8.424801306e-08
3.850398491e-08
1.801716507e-07
7.270374679e-07
7.953545652e-07
5.558550241e-07
2.774571876e-07
7.762011725e-08
1.121302555e-08
1.033441876e-09
1.207456368e-10
2.257327435e-11
5.544669233e-12
1.417882727e-12
2.880079629e-13
9.815245057e-15
0
0
0
0
0
0
0
0
0
0
0
0
0
0
0
0
0
0
0
0
0
0
0
0
0
0
0
0
0
0
0
0
0
0
0
0
0
0
0
0
0
0
0
4.529911095e-07
1.022926065e-07
1.667029538e-07
1.085617133e-06
1.330354268e-06
1.04291671e-06
6.348670827e-07
3.158633295e-07
1.183436492e-07
2.675184683e-08
3.135981168e-09
3.166155171e-10
4.455510694e-11
8.943351102e-12
2.101933373e-12
4.396557175e-13
3.467381458e-14
0
0
0
0
0
0
0
0
0
0
0
0
0
0
0
0
0
0
0
0
0
0
0
0
0
0
0
0
0
0
0
0
0
0
0
0
0
0
0
0
0
0
0
9.560238548e-07
7.149427783e-07
3.073799884e-06
2.819694353e-06
1.964943323e-06
1.212261832e-06
6.861048281e-07
3.531448883e-07
1.592698032e-07
5.568607304e-08
1.179003413e-08
1.382102502e-09
1.432915784e-10
2.000656895e-11
3.786072663e-12
7.626011315e-13
9.428443632e-14
0
0
0
0
0
0
0
0
0
0
0
0
0
0
0
0
0
0
0
0
0
0
0
0
0
0
0
0
0
0
0
0
0
0
0
0
0
0
0
0
0
0
0
2.279775367e-05
1.14850881e-05
5.979404926e-06
3.551051273e-06
2.135856098e-06
1.264278829e-06
7.240381653e-07
3.934712197e-07
1.982429269e-07
8.838350075e-08
3.046881618e-08
6.301182996e-09
7.188806508e-10
7.211934457e-11
9.497486639e-12
1.599636572e-12
2.368813986e-13
1.41202921e-15
0
0
0
0
0
0
0
0
0
0
0
0
0
0
0
0
0
0
0
0
0
0
0
0
0
0
0
0
0
0
0
0
0
0
0
0
0
0
0
0
0
0
1.325808777e-05
8.514068307e-06
5.329038913e-06
3.333815277e-06
2.069098345e-06
1.266666127e-06
7.574664948e-07
4.36889386e-07
2.389500899e-07
1.207740333e-07
5.369982756e-08
1.832904739e-08
3.698316638e-09
4.007325419e-10
3.768728862e-11
4.533903949e-12
6.291179153e-13
4.403753666e-14
0
0
0
0
0
0
0
0
0
0
0
0
0
0
0
0
0
0
0
0
0
0
0
0
0
0
0
0
0
0
0
0
0
0
0
0
0
0
0
0
0
0
8.956244827e-06
6.455083963e-06
4.441915644e-06
2.973108038e-06
1.950673894e-06
1.255816694e-06
7.899252469e-07
4.815675222e-07
2.811490245e-07
1.544432021e-07
7.76829388e-08
3.406480452e-08
1.135906177e-08
2.191711776e-09
2.201660898e-10
1.905330001e-11
2.018875402e-12
2.069350731e-13
0
0
0
0
0
0
0
0
0
0
0
0
0
0
0
0
0
0
0
0
0
0
0
0
0
0
0
0
0
0
0
0
0
0
0
0
0
0
0
0
0
0
6.814010199e-06
5.170768589e-06
3.76469842e-06
2.660277115e-06
1.836825503e-06
1.240193321e-06
8.168444072e-07
5.21946119e-07
3.207917155e-07
1.872881299e-07
1.019700291e-07
5.03080044e-08
2.139840124e-08
6.8250488e-09
1.225802239e-09
1.110161766e-10
8.602505321e-12
7.738562851e-13
3.050852202e-14
0
0
0
0
0
0
0
0
0
0
0
0
0
0
0
0
0
0
0
0
0
0
0
0
0
0
0
0
0
0
0
0
0
0
0
0
0
0
0
0
0
5.465629156e-06
4.297480587e-06
3.257896702e-06
2.399443359e-06
1.724831455e-06
1.211153577e-06
8.285909171e-07
5.500229237e-07
3.519890123e-07
2.151632106e-07
1.23969933e-07
6.60056295e-08
3.148619334e-08
1.277027959e-08
3.811820622e-09
6.210650519e-10
4.930712554e-11
3.405440746e-12
2.212802399e-13
0
0
0
0
0
0
0
0
0
0
0
0
0
0
0
0
0
0
0
0
0
0
0
0
0
0
0
0
0
0
0
0
0
0
0
0
0
0
0
0
0
4.470156866e-06
3.593942844e-06
2.80555389e-06
2.145399932e-06
1.594969917e-06
1.155371842e-06
8.154305192e-07
5.58427024e-07
3.692034467e-07
2.339678196e-07
1.406689852e-07
7.907016571e-08
4.065735135e-08
1.84849657e-08
7.019435524e-09
1.912671311e-09
2.750287304e-10
1.925215457e-11
1.126426316e-12
2.239314909e-14
0
0
0
0
0
0
0
0
0
0
0
0
0
0
0
0
0
0
0
0
0
0
0
0
0
0
0
0
0
0
0
0
0
0
0
0
0
0
0
0
3.684762669e-06
3.034825091e-06
2.438364738e-06
1.911626177e-06
1.461292049e-06
1.087129508e-06
7.858915019e-07
5.514271503e-07
3.741037405e-07
2.439027509e-07
1.515405208e-07
8.868941482e-08
4.80940861e-08
2.358706979e-08
1.00756883e-08
3.520434711e-09
8.541650413e-10
1.049990382e-10
6.309597205e-12
2.648743263e-13
0
0
0
0
0
0
0
0
0
0
0
0
0
0
0
0
0
0
0
0
0
0
0
0
0
0
0
0
0
0
0
0
0
0
0
0
0
0
0
0
3.071729388e-06
2.571135558e-06
2.10172712e-06
1.678366033e-06
1.308828959e-06
9.953209405e-07
7.359114961e-07
5.27473234e-07
3.652031251e-07
2.435035396e-07
1.552008528e-07
9.364490138e-08
5.279066657e-08
2.729795357e-08
1.260405578e-08
4.983125868e-09
1.571365358e-09
3.288695751e-10
3.281411748e-11
1.571287098e-12
1.157900687e-14
0
0
0
0
0
0
0
0
0
0
0
0
0
0
0
0
0
0
0
0
0
0
0
0
0
0
0
0
0
0
0
0
0
0
0
0
0
0
0
2.552426003e-06
2.162530201e-06
1.791445494e-06
1.451111921e-06
1.148709799e-06
8.875217299e-07
6.678520693e-07
4.876934876e-07
3.44213608e-07
2.336008665e-07
1.518044955e-07
9.370045643e-08
5.433783346e-08
2.917330237e-08
1.42068505e-08
6.089307489e-09
2.190500225e-09
6.080540846e-10
1.053081168e-10
8.015055425e-12
2.37087258e-13
0
0
0
0
0
0
0
0
0
0
0
0
0
0
0
0
0
0
0
0
0
0
0
0
0
0
0
0
0
0
0
0
0
0
0
0
0
0
0
2.105166047e-06
1.800463513e-06
1.506931168e-06
1.23407779e-06
9.881656669e-07
7.726647124e-07
5.887745863e-07
4.359432477e-07
3.122957148e-07
2.154053815e-07
1.421791653e-07
8.920653716e-08
5.278988985e-08
2.910910439e-08
1.471544671e-08
6.666470506e-09
2.615772616e-09
8.428234892e-10
2.043950516e-10
2.893891483e-11
1.63743655e-12
3.696354276e-15
0
0
0
0
0
0
0
0
0
0
0
0
0
0
0
0
0
0
0
0
0
0
0
0
0
0
0
0
0
0
0
0
0
0
0
0
0
0
1.715383836e-06
1.477920975e-06
1.246693694e-06
1.029310523e-06
8.311152842e-07
6.554226097e-07
5.038228238e-07
3.765052481e-07
2.725236505e-07
1.901025899e-07
1.270877444e-07
8.08562462e-08
4.852732191e-08
2.727058137e-08
1.415961605e-08
6.672014368e-09
2.780728475e-09
9.839636111e-10
2.769733449e-10
5.606693505e-11
6.006984929e-12
1.734647186e-13
0
0
0
0
0
0
0
0
0
0
0
0
0
0
0
0
0
0
0
0
0
0
0
0
0
0
0
0
0
0
0
0
0
0
0
0
0
0
1.373207291e-06
1.189743619e-06
1.009339801e-06
8.381025284e-07
6.805317686e-07
5.396275902e-07
4.170649475e-07
3.133862799e-07
2.282008896e-07
1.603439256e-07
1.080971403e-07
6.947905963e-08
4.224285373e-08
2.404586459e-08
1.272127051e-08
6.16471693e-09
2.682132306e-09
1.016465461e-09
3.169807411e-10
7.30980008e-11
1.135634422e-11
7.468477662e-13
0
0
0
0
0
0
0
0
0
0
0
0
0
0
0
0
0
0
0
0
0
0
0
0
0
0
0
0
0
0
0
0
0
0
0
0
0
0
1.072921161e-06
9.333228404e-07
7.948412383e-07
6.623557011e-07
5.395887403e-07
4.291405169e-07
3.325779054e-07
2.505548296e-07
1.829431384e-07
1.289757807e-07
8.737746473e-08
5.653325498e-08
3.468635531e-08
2.00027569e-08
1.072721858e-08
5.307334969e-09
2.38379376e-09
9.490785254e-10
3.198934269e-10
8.408689342e-11
1.66172739e-11
1.909790148e-12
3.522612161e-14
0
0
0
0
0
0
0
0
0
0
0
0
0
0
0
0
0
0
0
0
0
0
0
0
0
0
0
0
0
0
0
0
0
0
0
0
0
8.126506313e-07
7.088393784e-07
6.050645064e-07
5.051625154e-07
4.121289371e-07
3.281159731e-07
2.544733895e-07
1.918212823e-07
1.401428623e-07
9.889293466e-08
6.711985879e-08
4.358457829e-08
2.690081443e-08
1.56620879e-08
8.516027633e-09
4.282733919e-09
1.972699732e-09
8.167567818e-10
2.941003671e-10
8.428201653e-11
1.544197963e-11
2.039640225e-12
8.400550187e-14
0
0
0
0
0
0
0
0
0
0
0
0
0
0
0
0
0
0
0
0
0
0
0
0
0
0
0
0
0
0
0
0
0
0
0
0
0
5.930148399e-07
5.181785142e-07
4.428636322e-07
3.700055433e-07
3.019288662e-07
2.403287726e-07
1.862871402e-07
1.403183684e-07
1.024398224e-07
7.225506029e-08
4.905126947e-08
3.190139435e-08
1.976204044e-08
1.157938598e-08
6.365933046e-09
3.248254466e-09
1.527055612e-09
6.5228979e-10
2.463823885e-10
7.569246349e-11
1.524757074e-11
4.427229208e-13
9.166115576e-15
0
0
0
0
0
0
0
0
0
0
0
0
0
0
0
0
0
0
0
0
0
0
0
0
0
0
0
0
0
0
0
0
0
0
0
0
0
4.149150974e-07
3.629998578e-07
3.104284925e-07
2.593654708e-07
2.115394607e-07
1.682202717e-07
1.302236531e-07
9.794165462e-08
7.139408129e-08
5.029319301e-08
3.411892333e-08
2.219831037e-08
1.378313472e-08
8.117949118e-09
4.502488191e-09
2.330511886e-09
1.115160059e-09
4.895300168e-10
1.931195657e-10
6.492795745e-11
1.448977288e-11
3.606126775e-13
2.83431927e-15
0
0
0
0
0
0
0
0
0
0
0
0
0
0
0
0
0
0
0
0
0
0
0
0
0
0
0
0
0
0
0
0
0
0
0
0
0
2.774066897e-07
2.429403063e-07
2.07827025e-07
1.735944963e-07
1.41469595e-07
1.123568287e-07
8.683821649e-08
6.519341455e-08
4.74364029e-08
3.336403257e-08
2.261175072e-08
1.471171032e-08
9.148696532e-09
5.409381452e-09
3.022324834e-09
1.584186452e-09
7.718095937e-10
3.472882446e-10
1.422965482e-10
5.095532438e-11
1.280848779e-11
4.054021826e-13
0
0
0
0
0
0
0
0
0
0
0
0
0
0
0
0
0
0
0
0
0
0
0
0
0
0
0
0
0
0
0
0
0
0
0
0
0
0
1.768447018e-07
1.550250661e-07
1.326592194e-07
1.107742256e-07
9.01986209e-08
7.154454024e-08
5.52058121e-08
4.137099214e-08
3.004887023e-08
2.110231325e-08
1.428790443e-08
9.296206878e-09
5.789983382e-09
3.436972858e-09
1.934377019e-09
1.026006303e-09
5.09312169e-10
2.349863892e-10
1.00076241e-10
3.826646977e-11
1.176609077e-11
5.500271843e-13
0
0
0
0
0
0
0
0
0
0
0
0
0
0
0
0
0
0
0
0
0
0
0
0
0
0
0
0
0
0
0
0
0
0
0
0
0
0
1.073517853e-07
9.420868744e-08
8.065091872e-08
6.73343867e-08
5.479021984e-08
4.341156553e-08
3.345131159e-08
2.503018757e-08
1.815360743e-08
1.273403576e-08
8.617482745e-09
5.609814756e-09
3.501418173e-09
2.087710436e-09
1.184189108e-09
6.361983428e-10
3.221641541e-10
1.52966201e-10
6.7865948e-11
2.764835839e-11
9.687610072e-12
1.977453856e-12
0
0
0
0
0
0
0
0
0
0
0
0
0
0
0
0
0
0
0
0
0
0
0
0
0
0
0
0
0
0
0
0
0
0
0
0
0
0
6.201034486e-08
5.448767847e-08
4.667616116e-08
3.89730482e-08
3.170108951e-08
2.509966059e-08
1.932284427e-08
1.444419073e-08
1.046712348e-08
7.339178333e-09
4.968357491e-09
3.23940326e-09
2.028844704e-09
1.217152733e-09
6.974562234e-10
3.807158578e-10
1.974312738e-10
9.718167204e-11
4.528656284e-11
1.984328085e-11
7.795729015e-12
2.439524219e-12
0
0
0
0
0
0
0
0
0
0
0
0
0
0
0
0
0
0
0
0
0
0
0
0
0
0
0
0
0
0
0
0
0
0
0
0
0
0
3.40821092e-08
2.999365048e-08
2.571863925e-08
2.148494151e-08
1.747833812e-08
1.383695453e-08
1.064988406e-08
7.959822994e-09
5.769169524e-09
4.048418807e-09
2.745765261e-09
1.796531661e-09
1.131847101e-09
6.854534124e-10
3.985226811e-10
2.223201423e-10
1.190713615e-10
6.139824201e-11
3.043636074e-11
1.442202688e-11
6.202191802e-12
2.143374078e-12
1.315818134e-13
0
0
0
0
0
0
0
0
0
0
0
0
0
0
0
0
0
0
0
0
0
0
0
0
0
0
0
0
0
0
0
0
0
0
0
0
0
1.783809076e-08
1.572835467e-08
1.350609863e-08
1.129508262e-08
9.196580728e-09
7.286155076e-09
5.612728139e-09
4.199961264e-09
3.049603293e-09
2.146136305e-09
1.462099628e-09
9.632135359e-10
6.131260185e-10
3.770156268e-10
2.241289738e-10
1.290877892e-10
7.229828728e-11
3.951474014e-11
2.123790806e-11
1.104797494e-11
5.387606927e-12
2.187982696e-12
6.84501615e-13
0
0
0
0
0
0
0
0
0
0
0
0
0
0
0
0
0
0
0
0
0
0
0
0
0
0
0
0
0
0
0
0
0
0
0
0
0
8.911479938e-09
7.876894937e-09
6.778587072e-09
5.680212375e-09
4.634081266e-09
3.679409046e-09
2.841729301e-09
2.13360742e-09
1.556292334e-09
1.102189335e-09
7.57626092e-10
5.054469768e-10
3.275055971e-10
2.064496113e-10