/*--------------------------------*- C++ -*----------------------------------*\
  =========                 |
  \\      /  F ield         | OpenFOAM: The Open Source CFD Toolbox
   \\    /   O peration     | Website:  https://openfoam.org
    \\  /    A nd           | Version:  10
     \\/     M anipulation  |
\*---------------------------------------------------------------------------*/
FoamFile
{
    format      ascii;
    class       volScalarField;
    location    "0.02499901733";
    object      CH2_0;
}
// * * * * * * * * * * * * * * * * * * * * * * * * * * * * * * * * * * * * * //

dimensions      [0 0 0 0 0 0 0];

internalField   nonuniform List<scalar> 
5170
(
0
0
0
0
0
0
0
0
0
0
0
0
0
0
0
0
0
0
0
0
0
0
0
0
0
0
0
0
0
0
0
0
0
0
0
0
0
0
0
0
0
0
0
0
0
0
0
0
0
0
0
0
0
0
0
0
0
0
0
0
0
0
0
0
0
0
0
0
0
0
0
0
0
0
0
0
0
0
0
0
0
0
0
0
0
0
0
0
0
0
0
0
0
0
0
0
0
0
0
0
2.264489365e-17
1.005573873e-16
1.051551655e-17
5.102862522e-17
7.188579835e-17
1.000037901e-16
1.392665591e-16
1.31188489e-16
1.100685622e-16
1.066282291e-16
4.72376496e-17
8.84676453e-17
5.67171486e-17
4.991214902e-17
3.560839677e-17
1.24288984e-17
2.725012664e-17
1.311677307e-17
1.019964644e-17
0
0
0
0
0
0
0
0
0
1.362658093e-13
0
1.170233803e-12
0
0
1.18018003e-11
2.885340812e-11
8.188702058e-10
2.269119417e-11
7.840507997e-13
0
4.529580753e-09
4.944737802e-09
3.146048925e-10
4.124169836e-11
2.927482555e-09
9.77254027e-11
7.335665687e-10
3.739721961e-09
3.340192076e-09
1.452686038e-09
3.645070027e-11
7.029832648e-11
7.898406274e-10
7.923243694e-10
0
6.449481393e-11
5.583270275e-11
0
0
0
1.900894948e-11
1.935205808e-11
1.817518453e-11
0
2.405093662e-11
1.571350019e-10
1.173680594e-10
2.301358816e-11
8.502694618e-12
6.335789172e-11
1.659322914e-10
1.794333579e-10
7.104834415e-11
5.720146944e-11
1.277500251e-10
1.540211994e-10
1.687711957e-10
1.365827217e-10
1.269464796e-10
1.579448847e-10
1.446474336e-10
1.32053144e-10
1.535144406e-10
1.519865393e-10
1.493646164e-10
1.352950493e-10
1.096306563e-10
1.346811185e-10
1.3737831e-10
1.287520594e-10
1.244925727e-10
1.585185645e-10
1.424527216e-10
1.231332441e-10
1.149549126e-10
1.120793894e-10
5.635952824e-09
3.96980521e-09
5.505435892e-10
1.970467969e-10
1.044030186e-11
0
0
0
7.167379562e-13
9.09740237e-11
0
0
1.60497476e-12
2.548902932e-11
7.366527286e-10
0
0
1.628610597e-12
3.4161331e-11
6.214837853e-10
0
1.62110479e-13
5.253788456e-12
9.778066611e-11
1.771584224e-09
0
9.280513204e-13
1.229534977e-11
2.082108885e-10
3.021220997e-09
4.51948631e-14
2.168914413e-12
1.672134127e-11
2.851220801e-10
3.230585848e-09
2.780773764e-13
3.507240324e-12
1.766704004e-11
2.26777632e-10
1.866880497e-09
5.106890819e-13
3.233091428e-12
1.57681811e-11
1.554305416e-10
1.001845908e-09
3.47059089e-13
1.003506531e-12
2.202464114e-11
2.194254407e-10
1.629862249e-09
5.027674016e-13
2.717831041e-12
3.686664559e-11
3.364053614e-10
2.311759063e-09
1.521789243e-12
7.158387297e-12
5.499107404e-11
4.333771211e-10
2.681715003e-09
1.238843277e-12
7.7660164e-12
6.158062884e-11
4.030728985e-10
2.121031451e-09
0
8.414537616e-12
5.800813964e-11
3.270964249e-10
1.545292562e-09
1.807568846e-12
1.144600625e-11
7.145325118e-11
3.923741738e-10
1.905899531e-09
4.845051104e-12
2.157649492e-11
9.071862371e-11
4.526343255e-10
2.035234603e-09
2.386376162e-12
2.528682489e-11
1.206371802e-10
5.616138752e-10
1.915578988e-09
1.128576096e-11
3.632225389e-11
1.514439056e-10
6.208640572e-10
2.34838541e-09
1.675011036e-11
4.123765127e-11
1.426851208e-10
9.241669964e-10
3.542638611e-09
3.5381739e-11
8.739525687e-11
3.14484952e-10
1.184212026e-09
4.029609464e-09
4.80744747e-11
1.037875967e-10
3.154816704e-10
9.847963628e-10
2.875249341e-09
4.966717598e-11
8.771419827e-11
2.093248419e-10
5.234464656e-10
1.263434273e-09
3.454705761e-11
4.970976325e-11
9.222069863e-11
1.848787661e-10
3.706321378e-10
1.474816018e-11
1.92915859e-11
2.89261888e-11
4.78827147e-11
8.126942742e-11
4.521213529e-12
5.285472743e-12
6.943756786e-12
9.811793852e-12
1.413886202e-11
1.025657371e-12
1.1732767e-12
1.448046777e-12
1.736196463e-12
2.292215076e-12
2.026737353e-13
2.175790578e-13
2.413525027e-13
2.670689482e-13
3.024560986e-13
4.097019133e-14
4.215095368e-14
4.320383384e-14
4.495667821e-14
4.629176974e-14
8.301643581e-15
8.342337043e-15
8.280331058e-15
8.094093485e-15
7.665583627e-15
1.69281217e-15
1.682004939e-15
1.642898686e-15
1.581345811e-15
1.487795286e-15
3.096340112e-16
2.872429182e-16
2.768925641e-16
2.652386575e-16
2.498224659e-16
3.83942213e-17
5.447046437e-17
7.451049949e-17
7.383500416e-17
6.932761347e-17
2.242953892e-17
2.256104635e-17
2.229257893e-17
2.136157831e-17
2.001738116e-17
1.029101795e-17
1.028504113e-17
1.022516902e-17
1.008409669e-17
9.874101639e-18
1.235850201e-17
1.265372518e-17
1.331000791e-17
1.432116019e-17
1.569568966e-17
2.960656163e-17
3.063716738e-17
3.287843755e-17
3.598844354e-17
3.876507775e-17
6.192473083e-17
6.432790191e-17
6.978397697e-17
7.870221514e-17
9.056319352e-17
9.212125745e-17
9.468235319e-17
1.002529466e-16
1.08511538e-16
1.190612482e-16
7.539868879e-17
7.760888752e-17
8.230021496e-17
8.89722639e-17
9.695708009e-17
4.333374965e-17
4.435342157e-17
4.642511127e-17
4.910321464e-17
5.175215526e-17
1.586757699e-17
1.585383745e-17
1.583813008e-17
1.626694489e-17
1.429622722e-17
2.600535304e-18
9.112763792e-19
6.541230187e-19
0
0
0
0
0
0
0
1.258987527e-18
1.235355494e-18
1.197407935e-18
1.16830449e-18
1.166866454e-18
6.61716819e-19
3.441740558e-19
0
0
0
0
0
0
0
0
0
0
0
0
0
0
0
0
0
0
4.742030044e-20
2.668565616e-20
0
0
9.198834885e-20
3.052793208e-20
2.046902344e-20
9.31456367e-21
0
0
0
0
0
0
0
0
0
0
0
0
0
0
0
0
0
0
0
0
0
0
0
0
0
0
0
5.223170695e-19
4.943530955e-19
4.563097686e-19
4.314282261e-19
4.117747703e-19
0
0
0
0
0
0
0
0
0
0
0
0
0
0
0
0
0
0
0
0
3.364358122e-19
2.767900382e-19
1.773884784e-19
7.565081444e-20
6.614203961e-21
2.251932205e-17
2.239504698e-17
2.211615313e-17
2.161533232e-17
2.072711556e-17
4.393181984e-17
4.340209276e-17
4.230909916e-17
4.067186239e-17
3.823521524e-17
4.11454944e-17
4.003613725e-17
3.783949383e-17
3.511984448e-17
3.310469471e-17
7.392786991e-17
7.080535595e-17
6.508241454e-17
5.795729536e-17
5.059417574e-17
5.047844122e-17
4.890229707e-17
4.565889886e-17
4.111906884e-17
3.55460627e-17
6.967519715e-17
6.91427936e-17
6.869691023e-17
7.032470573e-17
7.816680644e-17
3.174658611e-16
3.145931109e-16
3.08260607e-16
2.986598286e-16
2.848889539e-16
5.866085076e-16
5.81549161e-16
5.704577662e-16
5.537001084e-16
5.304026089e-16
8.603300533e-16
8.511809897e-16
8.314175111e-16
8.019303974e-16
7.619269055e-16
1.335838067e-15
1.331665338e-15
1.32329843e-15
1.311563254e-15
1.296977973e-15
4.675260012e-10
8.25250034e-09
4.425389411e-09
1.389175156e-08
1.993221782e-08
1.74988037e-08
7.811898057e-09
3.451384606e-09
7.159952978e-09
9.288272096e-09
1.004674264e-08
6.916638956e-09
4.74183081e-09
6.189805706e-09
6.163571458e-09
5.357416742e-09
6.37239985e-09
9.518812194e-09
9.647782435e-09
6.016151585e-09
2.325047244e-09
6.062195432e-10
1.196880286e-10
1.955641721e-11
2.808444327e-12
3.435738096e-13
4.890594871e-14
7.456437787e-15
1.433286716e-15
2.351968042e-16
6.537105407e-17
1.896779273e-17
9.666028496e-18
1.671627566e-17
4.295290176e-17
9.91228758e-17
1.273711166e-16
1.030004663e-16
5.358278855e-17
1.116909022e-17
0
0
1.136890255e-18
0
0
0
0
4.315805765e-20
0
0
0
0
0
0
3.763218795e-19
0
0
0
0
0
1.959662504e-17
3.537661015e-17
3.302630483e-17
4.536880744e-17
3.114159775e-17
7.792017741e-17
2.723203359e-16
5.097667318e-16
7.27710881e-16
1.283967166e-15
1.290576577e-09
2.41426761e-09
2.969291705e-10
1.589385562e-09
8.086347554e-11
4.58728919e-08
7.658824578e-07
4.400962906e-08
1.427240419e-09
3.915041661e-10
1.756351018e-08
1.404933483e-07
5.423152375e-08
4.947468018e-09
1.5599683e-09
6.770632412e-08
9.014784973e-07
1.075876006e-05
8.089479051e-07
4.192944143e-08
8.794873428e-08
9.636529653e-07
9.182612927e-06
9.554915116e-07
6.955653369e-08
6.513715626e-08
4.794597258e-07
3.343553858e-06
4.799024594e-07
4.689100666e-08
2.579094966e-08
1.991740562e-07
1.166006866e-06
2.199085012e-07
2.924770885e-08
1.036211223e-08
1.261907424e-07
8.326857828e-07
3.580403899e-06
4.501354626e-07
2.5197956e-08
2.267203677e-07
1.719430025e-06
1.165124127e-05
1.663101839e-06
3.013519715e-08
2.270471434e-07
1.497910406e-06
8.907671675e-06
1.512259014e-06
3.143780398e-08
1.758505461e-07
1.040790642e-06
5.616602238e-06
1.079567981e-06
1.948776645e-08
1.209555465e-07
6.691910213e-07
3.344602929e-06
1.30868479e-06
1.308636506e-08
1.13677053e-07
6.021555634e-07
3.129221788e-06
8.78690932e-06
1.78168907e-08
1.143820397e-07
5.681966672e-07
2.858587341e-06
1.011158198e-05
1.68071571e-08
9.590067773e-08
4.9645736e-07
2.365239891e-06
8.51827514e-06
1.397114379e-08
7.290531863e-08
4.193634545e-07
1.901263808e-06
6.789771978e-06
1.597260307e-08
8.111264041e-08
4.059471132e-07
1.792715986e-06
6.398619147e-06
2.375498421e-08
1.212291081e-07
5.708265647e-07
2.517221844e-06
8.936908593e-06
2.14116237e-08
8.655704026e-08
3.118338933e-07
1.025587502e-06
1.411520664e-06
1.208347779e-08
3.645494692e-08
9.089386867e-08
1.803150894e-07
2.076923964e-07
4.381274962e-09
1.085097954e-08
2.110659623e-08
3.109537084e-08
2.979200963e-08
1.073431268e-09
2.285824167e-09
3.822512976e-09
4.777920563e-09
4.064972579e-09
1.977256525e-10
3.677765015e-10
5.465529479e-10
6.206698569e-10
4.999083243e-10
2.980634102e-11
4.87017475e-11
6.53683562e-11
6.923177324e-11
5.414015104e-11
3.934397701e-12
5.686423294e-12
6.926090024e-12
6.882820093e-12
5.261600412e-12
4.283474727e-13
5.322710965e-13
5.790518922e-13
5.410815494e-13
4.097324214e-13
5.567430653e-14
6.085431647e-14
5.942804467e-14
5.095584704e-14
3.953556132e-14
7.895293793e-15
7.844063915e-15
6.649931574e-15
2.613312717e-15
3.674028125e-15
1.463317652e-15
1.591785681e-15
1.171320708e-15
6.344923768e-16
6.884961768e-17
2.137393551e-16
1.230053711e-16
1.86548314e-16
1.42813955e-16
7.300090607e-17
6.101879984e-17
5.119317354e-17
4.671866003e-17
3.786107951e-17
2.537546587e-17
1.787570579e-17
1.463936724e-17
1.198477278e-17
1.043921313e-17
8.693516561e-18
9.289044768e-18
8.396640693e-18
7.367380142e-18
8.267799661e-18
1.15624805e-17
1.798038133e-17
2.282874535e-17
3.068086607e-17
4.071567894e-17
5.161230171e-17
4.865872899e-17
6.30894462e-17
8.212287284e-17
1.038904234e-16
1.408657025e-16
1.104474554e-16
1.279067771e-16
1.55220183e-16
1.986912584e-16
2.603975385e-16
1.394791813e-16
1.631427461e-16
1.892156366e-16
2.276008833e-16
2.650783552e-16
1.125925323e-16
1.345119174e-16
1.295764053e-16
1.418432131e-16
1.677275206e-16
5.714539681e-17
5.700050802e-17
4.847108704e-17
5.123824219e-17
6.844426328e-17
6.20828184e-18
1.587956033e-19
0
1.663767558e-18
2.323475886e-17
0
0
0
2.275776095e-19
8.373349995e-19
0
1.480873561e-19
1.207613298e-19
3.889815847e-19
0
1.090907304e-18
5.35190869e-19
0
0
0
0
0
0
0
0
0
0
0
0
0
0
0
0
0
0
0
0
0
0
0
4.362376687e-20
0
0
0
0
0
0
0
0
0
0
0
0
0
0
0
0
0
0
0
0
0
0
0
0
0
0
0
0
0
1.380017874e-19
1.352541816e-19
3.16059123e-20
0
0
2.462639212e-19
0
0
0
0
0
0
0
0
0
0
0
0
0
0
0
0
0
0
2.467085749e-19
0
2.44673239e-19
3.048940554e-19
3.099889853e-19
2.616120212e-19
0
3.534876349e-20
0
0
0
1.722770992e-17
1.308921437e-17
9.301106147e-18
6.075654425e-18
0
2.902106203e-17
1.855111403e-17
1.208407921e-17
1.108762379e-17
2.412745177e-17
3.241241073e-17
4.116874939e-17
2.991430808e-17
1.376694074e-17
4.58398914e-18
3.72103546e-17
2.554377659e-17
1.471609933e-17
6.071808967e-18
1.402667092e-18
2.432575717e-17
1.472369792e-17
7.885919401e-18
6.818135374e-18
2.320830163e-17
8.503768034e-17
7.942926779e-17
7.034986308e-17
6.375436578e-17
5.854379921e-17
2.595826212e-16
2.30805342e-16
1.985351404e-16
1.625728828e-16
1.244214033e-16
4.833818028e-16
4.276889495e-16
3.596046165e-16
2.832923101e-16
2.125958428e-16
6.805458792e-16
5.943604682e-16
4.926757698e-16
3.945926352e-16
3.372156432e-16
1.252466698e-15
1.220431362e-15
1.198943554e-15
1.174903959e-15
1.155961597e-15
2.032827079e-13
0
0
0
0
0
0
0
0
0
0
0
0
0
0
0
0
0
0
0
0
0
0
0
0
0
0
0
0
0
0
0
0
0
0
0
0
0
0
0
0
0
0
0
0
0
0
0
0
0
0
0
0
0
0
0
0
0
0
0
1.687546633e-12
3.559258597e-13
0
0
0
0
0
0
0
0
0
0
0
0
0
0
0
0
0
0
0
0
0
0
0
0
0
0
0
0
0
0
0
0
0
0
0
0
0
0
0
0
0
0
0
0
0
0
0
0
0
0
0
0
0
0
0
0
0
0
1.050302684e-11
0
0
0
0
0
0
0
0
0
0
0
0
0
0
0
0
0
0
0
0
0
0
0
0
0
0
0
0
0
0
0
0
0
0
0
0
0
0
0
0
0
0
0
0
0
0
0
0
0
0
0
0
0
0
0
0
0
0
0
6.413818853e-10
2.44003516e-12
1.636012634e-13
0
0
0
0
0
0
0
0
0
0
0
0
0
0
0
0
0
0
0
0
0
0
0
0
0
0
0
0
0
0
0
0
0
0
0
0
0
0
0
0
0
0
0
0
0
0
0
0
0
0
0
0
0
0
0
0
0
2.432545073e-09
2.29257134e-11
2.511224578e-13
3.087637972e-14
0
0
0
0
0
0
0
0
0
0
0
0
0
0
0
0
0
0
0
0
0
0
0
0
0
0
0
0
0
0
0
0
0
0
0
0
0
0
0
0
0
0
0
0
0
0
0
0
0
0
0
0
0
0
0
0
5.060080554e-09
1.441343609e-10
1.32264309e-12
2.576927393e-13
0
0
0
0
0
0
0
0
0
0
0
0
0
0
0
0
0
0
0
0
0
0
0
0
0
0
0
0
0
0
0
0
0
0
0
0
0
0
0
0
0
0
0
0
0
0
0
0
0
0
0
0
0
0
0
0
5.659244683e-09
5.365527674e-10
1.423771889e-11
1.37017999e-13
1.677596481e-14
0
0
0
0
0
0
0
0
0
0
0
0
0
0
0
0
0
0
0
0
0
0
0
0
0
0
0
0
0
0
0
0
0
0
0
0
0
0
0
0
0
0
0
0
0
0
0
0
0
0
0
0
0
0
0
3.414644769e-08
2.987981359e-09
1.388479244e-10
2.415225477e-12
0
0
0
0
0
0
0
0
0
0
0
0
0
0
0
0
0
0
0
0
0
0
0
0
0
0
0
0
0
0
0
0
0
0
0
0
0
0
0
0
0
0
0
0
0
0
0
0
0
0
0
0
0
0
0
0
1.473852722e-07
1.153795523e-08
8.437770025e-10
3.022689841e-11
4.669647909e-13
1.949200173e-13
2.55367977e-17
0
0
0
0
0
0
0
0
0
0
0
0
0
0
0
0
0
0
0
0
0
0
0
0
0
0
0
0
0
0
0
0
0
0
0
0
0
0
0
0
0
0
0
0
0
0
0
0
0
0
0
0
0
1.637559894e-07
1.460735846e-08
2.502338292e-09
1.587307385e-10
4.746872597e-12
6.957900741e-14
3.814474585e-14
0
0
0
0
0
0
0
0
0
0
0
0
0
0
0
0
0
0
0
0
0
0
0
0
0
0
0
0
0
0
0
0
0
0
0
0
0
0
0
0
0
0
0
0
0
0
0
0
0
0
0
0
0
1.373741837e-07
1.286767109e-08
5.134267417e-09
6.717635693e-10
3.042504067e-11
6.408346967e-13
2.06253747e-13
7.308865583e-16
0
0
0
0
0
0
0
0
0
0
0
0
0
0
0
0
0
0
0
0
0
0
0
0
0
0
0
0
0
0
0
0
0
0
0
0
0
0
0
0
0
0
0
0
0
0
0
0
0
0
0
0
1.850588875e-07
2.016217746e-08
6.863239128e-09
2.587756083e-09
1.520859007e-10
4.263339369e-12
6.217124013e-14
2.412062475e-14
0
0
0
0
0
0
0
0
0
0
0
0
0
0
0
0
0
0
0
0
0
0
0
0
0
0
0
0
0
0
0
0
0
0
0
0
0
0
0
0
0
0
0
0
0
0
0
0
0
0
0
0
1.243132653e-06
1.39684754e-07
1.633258514e-08
8.956305378e-09
6.328129777e-10
2.230954205e-11
4.05884463e-13
8.846278014e-14
0
0
0
0
0
0
0
0
0
0
0
0
0
0
0
0
0
0
0
0
0
0
0
0
0
0
0
0
0
0
0
0
0
0
0
0
0
0
0
0
0
0
0
0
0
0
0
0
0
0
0
0
1.648062039e-06
2.151268146e-07
2.497073715e-08
1.853799228e-08
1.732215477e-09
7.57656811e-11
1.810521021e-12
3.231507119e-13
7.884443119e-15
0
0
0
0
0
0
0
0
0
0
0
0
0
0
0
0
0
0
0
0
0
0
0
0
0
0
0
0
0
0
0
0
0
0
0
0
0
0
0
0
0
0
0
0
0
0
0
0
0
0
0
1.565763054e-06
2.347023724e-07
3.211526169e-08
2.60749127e-08
3.031378345e-09
1.536865471e-10
4.692288292e-12
7.859208277e-13
3.922975328e-14
0
0
0
0
0
0
0
0
0
0
0
0
0
0
0
0
0
0
0
0
0
0
0
0
0
0
0
0
0
0
0
0
0
0
0
0
0
0
0
0
0
0
0
0
0
0
0
0
0
0
0
1.375394785e-06
2.305025518e-07
3.67064181e-08
3.826722361e-08
4.070820703e-09
2.15119621e-10
7.805275142e-12
4.353920009e-13
3.870780131e-14
0
0
0
0
0
0
0
0
0
0
0
0
0
0
0
0
0
0
0
0
0
0
0
0
0
0
0
0
0
0
0
0
0
0
0
0
0
0
0
0
0
0
0
0
0
0
0
0
0
0
0
1.362070871e-06
2.410955591e-07
4.140076642e-08
6.051860233e-08
3.818028795e-09
1.7596416e-10
6.432084861e-12
1.024701805e-13
1.418856347e-14
0
0
0
0
0
0
0
0
0
0
0
0
0
0
0
0
0
0
0
0
0
0
0
0
0
0
0
0
0
0
0
0
0
0
0
0
0
0
0
0
0
0
0
0
0
0
0
0
0
0
0
1.826098075e-06
3.036428822e-07
5.31748828e-08
9.332783242e-09
6.558480921e-10
3.756810008e-11
1.779532031e-12
2.671398811e-14
1.792596694e-14
0
0
0
0
0
0
0
0
0
0
0
0
0
0
0
0
0
0
0
0
0
0
0
0
0
0
0
0
0
0
0
0
0
0
0
0
0
0
0
0
0
0
0
0
0
0
0
0
0
0
0
4.174855684e-07
8.641737458e-08
2.513177099e-08
2.543390231e-09
2.092125064e-10
1.398638543e-11
7.409741997e-13
9.376272435e-14
2.525627683e-15
1.871774144e-14
0
0
0
0
0
0
0
0
0
0
0
0
0
0
0
0
0
0
0
0
0
0
0
0
0
0
0
0
0
0
0
0
0
0
0
0
0
0
0
0
0
0
0
0
0
0
0
0
0
0
1.078054444e-07
2.622788021e-08
4.576723656e-09
5.776531068e-10
5.756284773e-11
4.403479256e-12
3.618996772e-13
4.228499313e-14
1.053525187e-14
2.026296011e-14
2.269888381e-14
0
0
0
0
0
0
0
0
0
0
0
0
0
0
0
0
0
0
0
0
0
0
0
0
0
0
0
0
0
0
0
0
0
0
0
0
0
0
0
0
0
0
0
0
0
0
0
0
0
1.529220473e-08
4.275978909e-09
8.144611427e-10
1.174196464e-10
1.275545073e-11
1.074877864e-12
0
3.105382876e-15
1.159242568e-15
8.379669006e-15
2.384313929e-14
1.899741943e-14
0
0
0
0
0
0
0
0
0
0
0
0
0
0
0
0
0
0
0
0
0
0
0
0
0
0
0
0
0
0
0
0
0
0
0
0
0
0
0
0
0
0
0
0
0
0
0
0
2.048690047e-09
6.159596985e-10
1.286469455e-10
1.980543685e-11
2.332197036e-12
2.195250556e-13
1.541214847e-14
9.813007316e-16
0
0
1.331545396e-15
2.973421321e-14
2.651166668e-14
0
0
0
0
0
0
0
0
0
0
0
0
0
0
0
0
0
0
0
0
0
0
0
0
0
0
0
0
0
0
0
0
0
0
0
0
0
0
0
0
0
0
0
0
0
0
0
2.53403387e-10
7.926883889e-11
1.745795109e-11
2.875106432e-12
3.729977534e-13
4.033463935e-14
5.920299408e-15
4.349550327e-16
0
0
0
2.443167464e-15
3.020235154e-14
2.232894686e-14
0
0
0
0
0
0
0
0
0
0
0
0
0
0
0
0
0
0
0
0
0
0
0
0
0
0
0
0
0
0
0
0
0
0
0
0
0
0
0
0
0
0
0
0
0
0
2.788926829e-11
9.094855391e-12
2.117601688e-12
3.778677331e-13
5.637173794e-14
7.389630485e-15
9.001020546e-16
9.488201585e-17
9.611799282e-18
2.896109854e-17
0
0
5.308065279e-15
3.958035297e-14
3.08539972e-14
0
0
0
0
0
0
0
0
0
0
0
0
0
0
0
0
0
0
0
0
0
0
0
0
0
0
0
0
0
0
0
0
0
0
0
0
0
0
0
0
0
0
0
0
0
2.760417488e-12
9.357633166e-13
2.06031024e-13
4.059703851e-14
6.730975957e-15
9.173049607e-16
1.726244325e-16
0
0
0
0
0
0
1.655067768e-15
3.084903462e-14
1.273234863e-14
0
0
0
0
0
0
0
0
0
0
0
0
0
0
0
0
0
0
0
0
0
0
0
0
0
0
0
0
0
0
0
0
0
0
0
0
0
0
0
0
0
0
0
0
2.195579995e-13
7.896170559e-14
2.193365307e-14
5.677546038e-15
1.044664954e-15
1.528488595e-16
1.349547388e-17
0
0
0
0
0
0
0
0
2.399228081e-14
1.900357501e-15
0
0
0
0
0
0
0
0
0
0
0
0
0
0
0
0
0
0
0
0
0
0
0
0
0
0
0
0
0
0
0
0
0
0
0
0
0
0
0
0
0
0
0
2.028760514e-14
7.914406611e-15
2.96628259e-15
2.893054252e-16
5.605675978e-17
2.450709219e-17
7.821583008e-18
0
0
0
0
0
0
0
2.739434922e-15
4.378346738e-14
5.340978899e-14
1.220036653e-14
0
0
0
0
0
0
0
0
0
0
0
0
0
0
0
0
0
0
0
0
0
0
0
0
0
0
0
0
0
0
0
0
0
0
0
0
0
0
0
0
0
0
2.583834989e-15
1.014671343e-15
0
2.235695617e-17
1.600696413e-17
1.05363031e-17
7.371456176e-18
0
0
8.513565695e-18
1.471176707e-16
0
0
0
0
4.909397687e-15
6.627455959e-14
1.058106819e-13
2.323052749e-14
0
0
0
0
0
0
0
0
0
0
0
0
0
0
0
0
0
0
0
0
0
0
0
0
0
0
0
0
0
0
0
0
0
0
0
0
0
0
0
0
0
2.476039628e-16
6.803316162e-17
2.430392066e-17
2.202097823e-17
1.744082323e-17
5.572707962e-18
6.46182314e-18
0
0
2.703655536e-17
3.37632877e-17
1.375208403e-16
0
0
1.312215188e-15
2.428317743e-15
2.713433922e-15
5.217318179e-14
2.630992884e-14
0
0
0
0
0
0
0
0
0
0
0
0
0
0
0
0
0
0
0
0
0
0
0
0
0
0
0
0
0
0
0
0
0
0
0
0
0
0
0
0
0
5.772905719e-17
3.197291653e-17
1.833683252e-17
1.237835026e-17
2.043128391e-17
7.117881267e-18
0
4.453341669e-18
0
3.955796869e-17
1.17624042e-16
2.849734944e-16
1.347492006e-16
0
7.775382341e-17
0
3.769232224e-15
6.292044953e-14
8.50808857e-14
3.951587596e-14
0
0
0
0
0
0
0
0
0
0
0
0
0
0
0
0
0
0
0
0
0
0
0
0
0
0
0
0
0
0
0
0
0
0
0
0
0
0
0
0
1.842157609e-17
1.168933148e-17
6.955964407e-18
4.972960751e-18
0
4.722645794e-18
0
0
1.480388814e-17
4.111060096e-17
1.311986146e-16
2.07209442e-16
2.392342183e-16
0
0
0
0
0
9.108353405e-14
1.152803685e-13
5.138692279e-14
0
0
0
0
0
0
0
0
0
0
0
0
0
0
0
0
0
0
0
0
0
0
0
0
0
0
0
0
0
0
0
0
0
0
0
0
0
0
0
7.092697946e-18
4.99613009e-18
5.504524874e-18
2.648490551e-18
0
9.703682178e-18
3.146824619e-17
3.349473207e-17
7.896615158e-17
1.134762916e-16
2.19723397e-16
2.306554647e-16
2.959679899e-16
3.061208323e-17
2.103222682e-16
2.916272317e-16
1.293725468e-15
1.889890027e-14
8.412661019e-14
1.218358054e-13
8.078258001e-14
2.09807658e-14
0
0
0
0
0
0
0
0
0
0
0
0
0
0
0
0
0
0
0
0
0
0
0
0
0
0
0
0
0
0
0
0
0
0
0
0
0
0
1.692182553e-17
1.844303646e-17
2.016032048e-17
3.325468983e-17
1.297854468e-16
1.23327345e-16
2.316380816e-16
1.559928661e-16
1.557334872e-16
1.456041667e-16
1.726322274e-16
1.01043901e-16
1.75588774e-16
0
0
0
0
0
0
1.008911388e-13
1.331050295e-13
7.683236697e-14
1.051992401e-14
0
0
0
0
0
0
0
0
0
0
0
0
0
0
0
0
0
0
0
0
0
0
0
0
0
0
0
0
0
0
0
0
0
0
0
0
0
7.499016669e-17
1.104278292e-16
1.70937132e-16
1.651797656e-16
2.564751801e-16
2.122438372e-16
3.395483107e-16
3.662384581e-16
2.900559492e-16
2.5740422e-16
2.254712426e-16
1.322699441e-16
2.523249458e-17
1.915865339e-16
1.932995971e-16
9.985132967e-16
3.787232064e-15
1.059915747e-14
3.498331059e-14
9.114754664e-14
1.43193336e-13
1.327379808e-13
6.233403569e-14
4.571864201e-17
0
0
0
0
0
0
0
0
0
0
0
0
0
0
0
0
0
0
0
0
0
0
0
0
0
0
0
0
0
0
0
0
0
0
0
0
2.0885543e-16
3.21545701e-16
3.414186159e-16
3.126220514e-16
4.096552158e-16
4.669035395e-16
4.247306037e-16
4.640968686e-16
3.671747457e-16
3.155712055e-16
3.097447454e-16
2.374142108e-16
7.647489816e-17
1.608386296e-16
3.131398296e-17
5.807956582e-17
3.854405794e-16
1.788446918e-15
0
0
1.075017094e-13
1.527273832e-13
1.019042422e-13
2.997726057e-14
0
0
0
0
0
0
0
0
0
0
0
0
0
0
0
0
0
0
0
0
0
0
0
0
0
0
0
0
0
0
0
0
0
0
0
0
3.580003566e-16
4.512800182e-16
4.489408092e-16
3.483819458e-16
3.231847295e-16
3.518704626e-16
3.895568192e-16
4.520950745e-16
3.69277479e-16
3.083922998e-16
2.748697072e-16
1.661822419e-16
6.778074594e-17
1.103658392e-16
2.300274958e-18
4.767416039e-17
3.022696488e-16
1.938885563e-16
0
2.073038771e-16
0
1.292827745e-13
1.615204623e-13
9.580011468e-14
2.06489456e-14
0
0
0
0
0
0
0
0
0
0
0
0
0
0
0
0
0
0
0
0
0
0
0
0
0
0
0
0
0
0
0
0
0
0
0
3.484214523e-16
3.920112452e-16
2.922337673e-16
2.267337351e-16
2.029125299e-16
2.448105713e-16
2.897210777e-16
3.731171375e-16
2.998602907e-16
2.23833885e-16
1.915398003e-16
9.243394076e-17
0
5.975576186e-17
0
1.677764242e-17
2.731232227e-16
1.096147019e-16
1.280975317e-18
0
0
1.284506099e-13
2.029055637e-13
1.715988606e-13
8.099790612e-14
7.816016116e-16
0
0
0
0
0
0
0
0
0
0
0
0
0
0
0
0
0
0
0
0
0
0
0
0
0
0
0
0
0
0
0
0
0
0
2.289260478e-16
2.64961159e-16
1.517127525e-16
8.318204857e-17
5.556470445e-17
9.632631438e-17
1.40870908e-16
2.275337312e-16
1.632534652e-16
1.083244011e-16
9.915176912e-17
4.933975984e-17
3.217791941e-18
7.214844056e-17
1.085832178e-16
0
0
0
2.106563003e-17
0
0
0
1.530947733e-13
2.046522687e-13
1.410767653e-13
4.917757812e-14
0
0
0
0
0
0
0
0
0
0
0
0
0
0
0
0
0
0
0
0
0
0
0
0
0
0
0
0
0
0
0
0
0
0
1.127835206e-16
6.991852236e-17
3.260522925e-17
6.521856439e-18
9.942122044e-18
7.928553978e-18
4.792445576e-18
3.06697669e-17
1.210530927e-17
1.135916946e-17
3.620803163e-17
2.921608838e-17
0
0
4.899768598e-17
0
2.300310458e-17
1.349970312e-16
9.73488156e-17
2.605450053e-18
0
0
1.545209106e-13
2.660444599e-13
3.21665899e-13
1.44924574e-13
3.087268311e-14
0
0
0
0
0
0
0
0
0
0
0
0
0
0
0
0
0
0
0
0
0
0
0
0
0
0
0
0
0
0
0
0
0
8.352943419e-18
0
0
0
5.415653881e-18
3.265753012e-19
0
1.070441778e-17
0
0
1.807825058e-17
2.120167932e-17
0
0
4.565848325e-17
0
0
2.123226562e-16
0
3.575405312e-17
0
4.673878763e-16
0
1.750875268e-13
2.411447124e-13
1.716893125e-13
7.071336036e-14
4.929002259e-16
0
0
0
0
0
0
0
0
0
0
0
0
0
0
0
0
0
0
0
0
0
0
0
0
0
0
0
0
0
0
0
0
0
0
0
7.668982054e-18
4.45480067e-18
2.679581909e-18
0
9.435664925e-18
0
0
1.181417568e-17
1.857625995e-17
1.033098561e-17
0
4.022792876e-17
0
0
0
0
7.152201136e-17
2.264122432e-17
0
0
1.639137179e-13
2.656870043e-13
2.526884251e-13
1.54356166e-13
4.858742734e-14
0
0
0
0
0
0
0
0
0
0
0
0
0
0
0
0
0
0
0
0
0
0
0
0
0
0
0
0
0
0
0
0
0
0
0
0
0
0
0
8.680357454e-18
0
0
8.559828533e-18
1.588118926e-17
0
0
3.92317694e-17
0
0
0
0
8.8920318e-17
1.553808785e-16
0
4.586170235e-15
0
1.936242089e-13
2.644434315e-13
2.054550661e-13
1.013819331e-13
1.545394586e-14
0
0
0
0
0
0
0
0
0
0
0
0
0
0
0
0
0
0
0
0
0
0
0
0
0
0
0
0
0
0
0
0
0
0
0
0
0
0
0
0
0
2.535981381e-18
1.198125722e-17
0
0
3.89118351e-17
0
0
0
0
0
1.308060847e-16
2.708851125e-16
0
0
1.795675987e-13
2.931804064e-13
2.917075092e-13
1.858950628e-13
6.930196258e-14
3.770204579e-16
0
0
0
0
0
0
0
0
0
0
0
0
0
0
0
0
0
0
0
0
0
0
0
0
0
0
0
0
0
0
0
0
1.623382614e-19
0
0
0
4.232071798e-18
0
0
0
1.772260412e-18
9.127307408e-18
0
0
4.288299188e-17
0
0
0
0
0
8.939060679e-17
9.663734363e-17
0
0
3.20870951e-14
2.13908606e-13
2.830208317e-13
2.224454331e-13
1.14383514e-13
2.237135678e-14
0
0
0
0
0
0
0
0
0
0
0
0
0
0
0
0
0
0
0
0
0
0
0
0
0
0
0
0
0
0
6.507298864e-20
0
0
0
0
0
8.760136698e-18
0
0
0
1.943199045e-19
3.602963192e-18
0
0
4.243958004e-17
0
0
0
0
0
3.857098869e-17
9.325419243e-17
0
0
0
1.895545024e-13
3.045272945e-13
3.01321355e-13
1.951285693e-13
7.536786354e-14
8.31203097e-16
0
0
0
0
0
0
0
0
0
0
0
0
0
0
0
0
0
0
0
0
0
0
0
0
0
0
0
0
0
0
0
0
0
0
0
0
0
0
5.597924487e-19
5.055365615e-19
3.22158655e-18
0
0
0
0
0
0
0
0
0
9.221963356e-17
3.295680365e-17
0
0
1.380414842e-13
2.671227955e-13
3.185409084e-13
2.5280165e-13
1.379920949e-13
3.696922566e-14
0
0
0
0
0
0
0
0
0
0
0
0
0
0
0
0
0
0
0
0
0
0
0
0
0
0
0
0
0
0
0
0
0
0
1.132968078e-18
0
0
0
6.537968883e-19
5.175989939e-19
3.444156521e-18
0
0
0
0
2.113850246e-19
0
0
0
3.689797047e-16
6.907435645e-16
5.603923015e-16
0
1.189693719e-15
0
2.188738572e-13
3.487384361e-13
3.637054464e-13
2.285045937e-13
9.215578837e-14
5.3891266e-15
0
0
0
0
0
0
0
0
0
0
0
0
0
0
0
0
0
0
0
0
0
0
0
0
0
0
0
0
0
0
0
0
0
0
0
0
0
0
6.019455197e-19
3.442718645e-18
0
0
0
3.799969355e-17
1.07060296e-16
1.073814955e-17
3.326013232e-16
3.52558596e-16
3.650813191e-15
5.09013276e-15
5.462050628e-15
4.228809304e-15
8.214339566e-16
0
1.79185514e-13
3.168128418e-13
3.546129734e-13
2.678833292e-13
1.40858384e-13
3.619146371e-14
0
0
0
0
0
0
0
0
0
0
0
0
0
0
0
0
0
0
0
0
0
0
0
0
0
0
0
0
0
0
0
0
0
0
0
0
0
2.449328617e-18
1.0507483e-18
6.448991287e-18
0
6.603961355e-17
2.328720191e-16
1.039488037e-15
2.33030129e-15
3.280359194e-15
4.964100548e-15
6.436720976e-15
1.096550888e-14
1.338989958e-14
1.384473724e-14
1.19200322e-14
6.43178666e-15
7.632243902e-15
0
2.228179811e-13
3.418145007e-13
3.624849641e-13
2.000570684e-13
6.888047333e-14
8.354050893e-16
0
0
0
0
0
0
0
0
0
0
0
0
0
0
0
0
0
0
0
0
0
0
0
0
0
0
0
0
0
0
0
0
0
0
0
9.132713763e-18
9.138207805e-17
1.901873993e-16
3.071795069e-16
5.675218922e-16
9.798742036e-16
1.51809165e-15
2.93714771e-15
4.973519554e-15
6.680904705e-15
8.931681726e-15
1.141967244e-14
1.483982135e-14
1.662353491e-14
1.621092877e-14
1.325539596e-14
7.498802671e-15
2.678552387e-15
0
1.667019405e-13
2.805955841e-13
2.935438039e-13
1.94254005e-13
8.021623621e-14
5.856163371e-15
0
0
0
0
0
0
0
0
0
0
0
0
0
0
0
0
0
0
0
0
0
0
0
0
0
0
0
0
0
0
0
0
1.86016031e-20
7.895641527e-19
2.077789231e-17
8.67224086e-17
2.41161191e-16
4.313071739e-16
6.555681547e-16
1.075119844e-15
1.592990125e-15
2.196463476e-15
3.604560584e-15
5.469103302e-15
6.763393567e-15
8.376695948e-15
1.005365475e-14
1.169814556e-14
1.274817817e-14
1.182775905e-14
9.328784412e-15
5.128962565e-15
0
0
1.305539502e-14
1.863190827e-13
2.578283534e-13
2.124084435e-13
1.171249098e-13
3.244632125e-14
0
0
0
0
0
0
0
0
0
0
0
0
0
0
0
0
0
0
0
0
0
0
0
0
0
0
0
0
0
0
0
0
0
9.154743248e-19
1.222626253e-17
7.274405024e-17
2.030706787e-16
3.495855286e-16
5.111737677e-16
8.164828148e-16
1.107108686e-15
1.382431614e-15
2.253130668e-15
3.40174473e-15
3.854891275e-15
4.224234768e-15
4.654414381e-15
5.172641601e-15
5.977131945e-15
5.552572833e-15
4.143616445e-15
1.967461944e-15
0
0
0
1.752076392e-13
2.83453169e-13
2.845882844e-13
1.877928712e-13
7.979703896e-14
8.915136509e-15
0
0
0
0
0
0
0
0
0
0
0
0
0
0
0
0
0
0
0
0
0
0
0
0
0
0
0
0
0
0
0
0
0
0
1.248781632e-17
3.336714719e-17
4.70382011e-17
4.453655983e-17
1.379991728e-16
1.55571241e-16
7.40785904e-17
3.430501839e-16
8.348054647e-16
7.304383447e-16
3.844125067e-16
2.866731179e-16
0
1.128732858e-15
1.152908001e-15
8.032827316e-16
3.009593922e-16
0
0
0
1.5372158e-13
2.75890226e-13
3.135486776e-13
2.444387275e-13
1.382882816e-13
4.512301863e-14
1.169909676e-16
0
0
0
0
0
0
0
0
0
0
0
0
0
0
0
0
0
0
0
0
0
0
0
0
0
0
0
0
0
0
5.07978488e-20
0
0
7.89081462e-19
1.778024908e-18
1.138893054e-17
0
0
0
0
1.385140608e-17
1.509996031e-16
9.789024595e-17
1.050004786e-17
0
5.832856152e-17
0
0
1.217165761e-16
1.213278603e-16
1.377039894e-16
7.974850868e-17
7.209191376e-15
1.4268824e-14
2.278462662e-13
3.467178298e-13
3.440273465e-13
2.393805878e-13
1.16880584e-13
2.671245674e-14
0
0
0
0
0
0
0
0
0
0
0
0
0
0
0
0
0
0
0
0
0
0
0
0
0
0
0
0
0
5.596671045e-20
0
0
5.314282694e-19
6.542042439e-19
4.549069478e-19
0
0
0
0
0
0
6.653204364e-17
7.276088389e-17
0
0
3.562467797e-16
0
0
0
8.605600056e-17
3.993947009e-17
0
4.531600804e-18
0
2.083045237e-13
3.546701338e-13
3.900776035e-13
3.047803064e-13
1.780004772e-13
6.399738227e-14
8.91424697e-16
0
0
0
0
0
0
0
0
0
0
0
0
0
0
0
0
0
0
0
0
0
0
0
0
0
0
0
1.377019703e-19
0
0
0
6.692424389e-19
1.891737869e-18
2.754734695e-17
0
0
0
0
3.132184171e-17
3.244656588e-18
6.853460229e-17
8.142950283e-17
0
0
3.810892439e-16
0
0
0
8.679895561e-17
9.53932746e-17
3.821444766e-17
0
0
1.387805534e-13
3.025683699e-13
3.999621893e-13
3.725972614e-13
2.562727929e-13
1.22547637e-13
2.658022512e-14
0
0
0
0
0
0
0
0
0
0
0
0
0
0
0
0
0
0
0
0
0
0
0
0
0
2.747134161e-19
2.191096159e-19
0
0
0
5.288436242e-19
7.54696019e-19
2.196240414e-18
2.823479349e-17
0
0
0
0
3.270212319e-17
7.358938905e-18
8.975567821e-17
1.11773571e-16
0
0
3.915542922e-16
0
0
0
9.39375497e-17
1.637516547e-16
4.287819965e-16
7.359027002e-16
5.598107051e-15
2.745285846e-15
2.651272947e-13
4.279477109e-13
4.558406769e-13
3.510443128e-13
2.044237106e-13
7.546979243e-14
2.103885031e-15
0
0
0
0
0
0
0
0
0
0
0
0
0
0
0
0
0
0
0
0
0
0
0
3.146547965e-19
2.292541963e-19
0
0
0
6.543887835e-19
7.899331576e-19
2.002649117e-18
2.987505276e-17
1.218504864e-17
0
0
0
0
3.336687362e-17
1.46125742e-17
1.121413584e-16
1.069765621e-16
0
0
3.676066581e-16
0
0
0
0
1.025519513e-16
1.946578541e-16
4.623478084e-17
2.941492626e-15
0
2.501439255e-13
4.314574741e-13
4.936460973e-13
4.181091892e-13
2.771815055e-13
1.31907202e-13
2.891773966e-14
0
0
0
0
0
0
0
0
0
0
0
0
0
0
0
0
0
0
0
0
0
0
0
0
0
0
0
1.420381572e-18
8.36587519e-19
7.32581246e-19
3.409388563e-18
2.819694929e-17
0
0
0
0
0
1.289254976e-16
8.610534272e-17
1.450495805e-16
1.163340054e-16
0
0
4.269279226e-16
0
0
0
0
1.068434662e-16
1.235241637e-16
0
0
0
1.781593207e-13
3.832007566e-13
5.287299612e-13
5.786671969e-13
3.879707052e-13
2.086496551e-13
7.085836989e-14
1.115273962e-15
0
0
0
0
0
0
0
0