/*--------------------------------*- C++ -*----------------------------------*\
  =========                 |
  \\      /  F ield         | OpenFOAM: The Open Source CFD Toolbox
   \\    /   O peration     | Website:  https://openfoam.org
    \\  /    A nd           | Version:  10
     \\/     M anipulation  |
\*---------------------------------------------------------------------------*/
FoamFile
{
    format      ascii;
    class       volScalarField;
    location    "0.02499901733";
    object      CH2CHO_0;
}
// * * * * * * * * * * * * * * * * * * * * * * * * * * * * * * * * * * * * * //

dimensions      [0 0 0 0 0 0 0];

internalField   nonuniform List<scalar> 
5170
(
0
0
0
0
0
0
0
0
0
0
0
0
0
0
0
0
0
0
0
0
0
0
0
0
0
0
0
0
0
0
0
0
0
0
0
0
0
0
0
0
0
0
0
0
0
0
0
0
0
0
0
0
0
0
0
0
0
0
0
0
0
0
0
0
0
0
0
0
0
0
0
0
0
0
0
0
0
0
0
0
0
0
0
0
0
0
0
0
0
0
0
0
0
0
0
0
0
0
0
0
8.544908803e-20
3.9629065e-20
1.036382527e-20
5.933497762e-20
8.28793929e-20
6.130213663e-20
7.659446094e-20
7.140563206e-20
7.716615139e-20
5.89071113e-20
1.906317316e-20
3.263237235e-20
2.810710738e-20
2.438127787e-20
1.443244031e-20
5.101814412e-21
7.405986117e-21
6.102006517e-21
4.159909984e-21
0
0
0
0
0
0
0
0
0
6.748168991e-19
0
0
0
0
1.683268008e-14
2.733377604e-13
1.701964025e-13
1.771757351e-15
0
0
1.339247602e-12
1.256762848e-12
0
4.826018589e-14
9.18530974e-13
1.510748458e-13
2.497577703e-13
1.043394464e-12
9.946318358e-13
1.369800038e-13
1.402609369e-14
8.025634986e-15
1.925254185e-13
1.907685899e-13
0
3.16912345e-14
3.72257924e-14
0
0
5.829162638e-15
7.398554894e-15
1.097173209e-14
1.74994674e-15
2.977134989e-15
2.01848506e-14
2.826046592e-14
2.137926641e-14
1.38343892e-14
1.632311971e-14
1.822525883e-14
2.378052207e-14
2.607829593e-14
1.625236544e-14
1.675045203e-14
2.173455932e-14
1.832925751e-14
2.162253926e-14
2.236484427e-14
2.177036753e-14
2.195449059e-14
1.540344171e-14
1.667889663e-14
2.191850601e-14
2.183664667e-14
1.825979221e-14
1.378420143e-14
1.475843924e-14
1.811890927e-14
1.804758593e-14
1.498361549e-14
1.304653397e-14
1.451166863e-13
8.021758621e-14
3.008941894e-14
1.713872502e-14
1.366510806e-14
1.471533444e-11
9.29947785e-12
1.487478316e-12
3.32143626e-13
1.14369487e-14
0
0
3.589253027e-14
2.567744516e-11
7.810954696e-10
0
0
1.071661307e-11
1.721233336e-10
4.527410408e-09
0
0
1.996515284e-11
3.707742158e-10
6.749871783e-09
0
9.293501887e-13
3.349229939e-11
5.880299957e-10
8.133231584e-09
0
3.940141011e-12
5.916223326e-11
8.090529166e-10
9.089447724e-09
0
8.632243504e-12
7.116761152e-11
1.12029556e-09
1.100481202e-08
6.834532149e-13
1.777596419e-11
1.142339706e-10
1.595524176e-09
1.395712814e-08
2.923080802e-12
2.583094557e-11
1.906466188e-10
2.260734364e-09
1.750311832e-08
4.695426999e-12
2.59474432e-11
2.903995688e-10
2.879001092e-09
1.92682313e-08
8.168537504e-12
3.575593243e-11
4.261256411e-10
3.593927782e-09
2.106009455e-08
2.054991732e-11
8.329277741e-11
6.304491366e-10
4.57920197e-09
2.38183306e-08
1.876383194e-11
1.141137288e-10
9.216833995e-10
5.843630933e-09
2.696007577e-08
8.394465582e-12
1.826580549e-10
1.301674296e-09
7.253235222e-09
2.939166189e-08
5.65625112e-11
3.105827249e-10
1.866856538e-09
9.14358136e-09
3.227732552e-08
1.5979373e-10
6.573553458e-10
2.732886873e-09
1.157879271e-08
3.499348379e-08
2.091459657e-10
9.998136218e-10
4.168386682e-09
1.529401932e-08
3.818961416e-08
7.640782048e-10
1.972283074e-09
6.757282865e-09
2.046678566e-08
4.34309321e-08
1.985441207e-09
4.037274763e-09
1.105071562e-08
2.810649933e-08
4.976484425e-08
4.997814722e-09
8.516049509e-09
1.863617495e-08
3.68413404e-08
5.376796688e-08
1.135460405e-08
1.591978586e-08
2.646001338e-08
4.056399596e-08
5.043948567e-08
2.058604982e-08
2.444086891e-08
3.223962284e-08
4.18290474e-08
5.050153653e-08
2.560910388e-08
2.793019983e-08
3.279996424e-08
3.961571379e-08
4.796467688e-08
2.027459874e-08
2.123852859e-08
2.318848715e-08
2.585294854e-08
2.892576066e-08
9.698206906e-09
9.855933946e-09
1.011235817e-08
1.035235811e-08
1.044920153e-08
2.899345312e-09
2.897249938e-09
2.857190932e-09
2.743802007e-09
2.579207582e-09
6.108524791e-10
6.01344928e-10
5.764967487e-10
5.355922758e-10
4.82859869e-10
1.170865391e-10
1.14670341e-10
1.089088299e-10
9.928127605e-11
8.803917875e-11
2.192911258e-11
2.134619409e-11
2.002579384e-11
1.825925131e-11
1.596416883e-11
4.217587842e-12
4.095165255e-12
3.828106492e-12
3.485305719e-12
3.107333353e-12
7.853348806e-13
7.432580487e-13
6.897403994e-13
6.226335753e-13
5.483528102e-13
1.076303101e-13
1.364599752e-13
1.686233616e-13
1.622598627e-13
1.477566683e-13
4.82810961e-14
4.813795234e-14
4.679362629e-14
4.422232454e-14
4.07415625e-14
1.693681216e-14
1.679471074e-14
1.644620767e-14
1.59248509e-14
1.520717515e-14
1.168268009e-14
1.182390214e-14
1.213666527e-14
1.261912065e-14
1.32340117e-14
2.06404615e-14
2.128193824e-14
2.267802204e-14
2.461376228e-14
2.630739487e-14
4.068963998e-14
4.223700035e-14
4.575272547e-14
5.150361466e-14
5.916664287e-14
5.969208904e-14
6.131394837e-14
6.483609578e-14
7.004066245e-14
7.6645281e-14
4.769616826e-14
4.907606572e-14
5.199530928e-14
5.611897116e-14
6.098684705e-14
2.628206597e-14
2.687294963e-14
2.805404308e-14
2.953218152e-14
3.092189759e-14
8.683603973e-15
8.611799002e-15
8.621069268e-15
8.920003003e-15
7.744619439e-15
1.225239895e-15
6.727373043e-16
4.458912043e-16
0
0
0
0
0
0
0
5.569532607e-16
5.454523261e-16
5.289269298e-16
5.164025946e-16
5.158165424e-16
3.090317542e-16
1.307366937e-16
0
0
0
0
0
0
0
0
0
0
0
0
0
0
0
0
0
0
3.932069036e-17
3.122633318e-17
1.40481023e-17
0
4.63943811e-17
3.43798262e-17
3.251193147e-17
3.125564248e-17
2.678375369e-17
1.412933549e-17
0
0
0
0
0
0
0
0
0
0
0
0
0
0
0
0
0
0
0
0
0
0
0
0
0
0
0
0
0
0
0
0
0
0
0
0
0
0
0
0
0
0
0
0
0
0
0
0
0
0
2.931905162e-19
0
0
0
1.00944646e-19
3.38385994e-18
3.383902621e-18
3.354991687e-18
3.260631859e-18
3.117206515e-18
2.561227859e-18
2.588004779e-18
2.583737711e-18
2.454677743e-18
1.842530365e-18
0
0
0
0
0
2.660044322e-17
2.635604497e-17
2.558884773e-17
2.630427183e-17
2.500399542e-17
2.432142e-17
2.437135223e-17
2.438764321e-17
2.443692424e-17
2.407093857e-17
2.390869536e-17
2.368653298e-17
2.258567906e-17
1.937111508e-17
2.188368337e-17
5.237726924e-17
5.358169122e-17
5.639295754e-17
6.075884693e-17
6.744499894e-17
2.221475966e-16
2.207655155e-16
2.176983502e-16
2.12778533e-16
2.070819505e-16
2.729875589e-16
2.674585286e-16
2.56183312e-16
2.408868386e-16
2.24448931e-16
2.929962996e-17
2.769685096e-17
2.530218683e-17
2.364753741e-17
2.774830111e-17
3.440723949e-09
2.798650257e-08
3.498142366e-08
4.010018605e-08
4.137678175e-08
4.666216522e-08
5.339735203e-08
5.85747496e-08
5.468201008e-08
5.157767752e-08
5.139259164e-08
5.193883135e-08
5.117428177e-08
5.025094109e-08
4.9006065e-08
4.835609219e-08
5.057392757e-08
5.310028103e-08
5.455084553e-08
5.126222928e-08
5.516643501e-08
5.469092518e-08
3.117361907e-08
1.048605838e-08
2.454826645e-09
4.452166438e-10
8.005627713e-11
1.43996568e-11
2.889771826e-12
4.971998243e-13
1.359255299e-13
3.811676967e-14
1.457354381e-14
1.381605942e-14
2.893047161e-14
6.468367907e-14
8.180187687e-14
6.461493774e-14
3.178192473e-14
5.829211915e-15
0
0
4.968588042e-16
0
0
0
0
3.654037313e-17
0
0
0
0
0
0
0
0
0
0
0
0
3.283857822e-18
3.498200433e-19
0
2.237438915e-17
2.173388989e-17
1.826822027e-17
7.343943467e-17
2.033429344e-16
2.141680263e-16
3.704724032e-17
3.00026332e-09
1.183545256e-09
6.579842499e-11
8.42069737e-12
3.140322884e-12
4.348168158e-08
3.897673621e-07
2.236309579e-08
6.843606249e-10
5.259499091e-10
5.347820038e-08
1.431546016e-07
1.450641019e-08
8.999845977e-10
2.12261465e-09
5.991912861e-08
6.459330366e-08
2.691857215e-08
2.256570735e-09
1.039773781e-09
8.095781153e-08
7.418002609e-08
3.171128049e-07
3.127831425e-08
2.713419189e-09
9.803442527e-08
9.922935304e-08
4.842321408e-07
6.056874606e-08
6.016246552e-09
1.088700401e-07
1.030821498e-07
4.089361854e-07
6.119794947e-08
7.16090228e-09
1.096297893e-07
8.787920145e-08
2.558960373e-07
4.643486267e-08
6.388005673e-09
9.442973892e-08
7.003019058e-08
1.619155166e-07
9.742688107e-08
1.424525146e-08
8.196935881e-08
6.186947956e-08
1.343845614e-07
2.017398691e-07
3.24036303e-08
7.40206019e-08
6.012556676e-08
1.327214126e-07
2.881663221e-07
5.130791175e-08
7.060115532e-08
6.037659629e-08
1.327900018e-07
3.254921874e-07
6.354172637e-08
6.837416651e-08
6.119672292e-08
1.23755412e-07
3.058964517e-07
7.467513036e-08
6.057532043e-08
5.712350446e-08
1.133542826e-07
2.71458574e-07
1.024332179e-07
5.460387383e-08
5.275952492e-08
1.063518977e-07
2.448902226e-07
1.409952938e-07
5.01621524e-08
4.9750244e-08
1.015998285e-07
2.27162888e-07
1.819302889e-07
4.918140668e-08
5.268255427e-08
1.030719841e-07
2.267210579e-07
2.011655527e-07
4.888210761e-08
5.924627396e-08
1.173254379e-07
2.559744895e-07
1.669712779e-07
5.092014628e-08
6.815523475e-08
1.39375625e-07
3.203523514e-07
9.48651167e-08
5.048751516e-08
6.321863632e-08
1.040494356e-07
1.833769642e-07
2.812752724e-07
6.148659161e-08
8.350425116e-08
1.387843584e-07
2.530012849e-07
4.283588034e-07
6.574651714e-08
9.023627811e-08
1.243098169e-07
1.544831628e-07
1.488751313e-07
3.529373218e-08
3.941969174e-08
3.934376216e-08
3.385684542e-08
2.414922287e-08
1.086520033e-08
1.011662912e-08
8.195989302e-09
5.767993829e-09
3.534137177e-09
2.381744767e-09
1.985699344e-09
1.440413198e-09
9.181691747e-10
5.211064505e-10
4.134411989e-10
3.244271187e-10
2.23019043e-10
1.359479378e-10
7.465663258e-11
7.306272679e-11
5.628401123e-11
3.852735568e-11
2.361782201e-11
1.365795787e-11
1.315591162e-11
1.026534912e-11
7.094715432e-12
3.941041987e-12
2.62370753e-12
2.710659924e-12
2.50293407e-12
1.670696218e-12
9.678696115e-13
4.683160021e-13
4.312045394e-13
2.866910785e-13
3.243935275e-13
2.379036129e-13
1.415263672e-13
1.225736864e-13
1.0159943e-13
8.616768427e-14
6.681266273e-14
4.421719026e-14
3.543081949e-14
2.846277669e-14
2.247719007e-14
1.902656871e-14
1.490235619e-14
1.375486736e-14
1.187607276e-14
1.024639589e-14
9.437733329e-15
1.029836438e-14
1.462755305e-14
1.734366697e-14
2.180129619e-14
2.758368676e-14
3.398660707e-14
3.250963303e-14
4.14997798e-14
5.327913446e-14
6.677154401e-14
8.871795676e-14
7.195938894e-14
8.283386565e-14
9.915866525e-14
1.249393692e-13
1.616215202e-13
8.92719906e-14
1.036599084e-13
1.190973032e-13
1.415723643e-13
1.607261226e-13
7.038111826e-14
8.3654143e-14
7.822824561e-14
8.388917123e-14
9.791823589e-14
3.352726058e-14
3.259439305e-14
2.621290806e-14
2.698132289e-14
3.684352565e-14
2.746377238e-15
0
0
6.431805153e-16
1.30912256e-14
0
0
0
1.275804548e-16
3.056375916e-16
0
9.590430348e-17
1.2736599e-16
1.506544875e-16
0
4.699191242e-16
2.057480011e-16
0
0
0
0
0
0
0
0
0
0
0
0
0
0
0
0
0
0
0
0
0
0
0
2.760541332e-17
6.292402166e-18
1.997573774e-18
0
0
0
0
0
0
0
0
0
0
0
0
0
0
0
0
0
0
0
0
0
0
0
0
0
0
0
0
0
0
0
0
0
0
0
0
0
0
0
0
0
0
0
0
0
0
0
0
0
0
0
0
0
0
0
0
6.12124346e-19
3.089704679e-19
4.249614076e-18
3.674882281e-18
3.131147825e-18
2.534146921e-18
4.018108873e-18
4.394940576e-18
3.534132007e-18
0
0
0
0
0
0
0
0
0
2.279922758e-17
2.721020756e-17
2.484928394e-17
2.488162227e-17
2.39585232e-17
2.348198116e-17
2.294453362e-17
2.24627222e-17
2.373134123e-17
2.293775696e-17
2.254319865e-17
2.223347863e-17
2.608565573e-17
1.367977644e-18
6.546797552e-18
2.445740749e-17
4.072627878e-17
4.816577602e-17
7.537460115e-17
8.521133724e-17
9.590381236e-17
9.888099043e-17
9.945439506e-17
1.897690122e-16
1.770595516e-16
1.743542731e-16
1.775608016e-16
1.677179449e-16
1.92081595e-16
1.598884023e-16
9.219178382e-17
4.18996672e-17
1.25822667e-17
2.430944767e-17
1.104201034e-17
0
0
0
7.108360133e-14
0
0
0
0
0
0
0
0
0
0
0
0
0
0
0
0
0
0
0
0
0
0
0
0
0
0
0
0
0
0
0
0
0
0
0
0
0
0
0
0
0
0
0
0
0
0
0
0
0
0
0
0
0
0
0
0
0
0
0
1.223268918e-11
1.068526375e-12
0
0
0
0
0
0
0
0
0
0
0
0
0
0
0
0
0
0
0
0
0
0
0
0
0
0
0
0
0
0
0
0
0
0
0
0
0
0
0
0
0
0
0
0
0
0
0
0
0
0
0
0
0
0
0
0
0
0
9.721405487e-11
0
0
0
0
0
0
0
0
0
0
0
0
0
0
0
0
0
0
0
0
0
0
0
0
0
0
0
0
0
0
0
0
0
0
0
0
0
0
0
0
0
0
0
0
0
0
0
0
0
0
0
0
0
0
0
0
0
0
0
1.035395165e-09
1.44905086e-11
2.215384442e-12
0
0
0
0
0
0
0
0
0
0
0
0
0
0
0
0
0
0
0
0
0
0
0
0
0
0
0
0
0
0
0
0
0
0
0
0
0
0
0
0
0
0
0
0
0
0
0
0
0
0
0
0
0
0
0
0
0
7.176298183e-09
2.623130808e-10
6.579488958e-13
1.301455826e-12
0
0
0
0
0
0
0
0
0
0
0
0
0
0
0
0
0
0
0
0
0
0
0
0
0
0
0
0
0
0
0
0
0
0
0
0
0
0
0
0
0
0
0
0
0
0
0
0
0
0
0
0
0
0
0
0
5.940229291e-09
2.288419323e-09
6.525145637e-11
1.776651673e-11
7.90850911e-13
0
0
0
0
0
0
0
0
0
0
0
0
0
0
0
0
0
0
0
0
0
0
0
0
0
0
0
0
0
0
0
0
0
0
0
0
0
0
0
0
0
0
0
0
0
0
0
0
0
0
0
0
0
0
0
1.824067747e-09
6.376461983e-09
5.698387848e-10
1.541563091e-11
5.290023297e-12
0
0
0
0
0
0
0
0
0
0
0
0
0
0
0
0
0
0
0
0
0
0
0
0
0
0
0
0
0
0
0
0
0
0
0
0
0
0
0
0
0
0
0
0
0
0
0
0
0
0
0
0
0
0
0
8.700140779e-10
4.065151029e-09
2.733572994e-09
1.519060368e-10
1.069627721e-11
2.639268205e-12
0
0
0
0
0
0
0
0
0
0
0
0
0
0
0
0
0
0
0
0
0
0
0
0
0
0
0
0
0
0
0
0
0
0
0
0
0
0
0
0
0
0
0
0
0
0
0
0
0
0
0
0
0
0
1.478977627e-09
2.113355562e-09
6.945188372e-09
1.013154615e-09
4.314318605e-11
1.421684716e-11
7.218655019e-13
0
0
0
0
0
0
0
0
0
0
0
0
0
0
0
0
0
0
0
0
0
0
0
0
0
0
0
0
0
0
0
0
0
0
0
0
0
0
0
0
0
0
0
0
0
0
0
0
0
0
0
0
0
3.480554664e-09
1.047348334e-09
6.509827526e-09
3.777314546e-09
2.984883165e-10
9.023877822e-12
3.914970645e-12
0
0
0
0
0
0
0
0
0
0
0
0
0
0
0
0
0
0
0
0
0
0
0
0
0
0
0
0
0
0
0
0
0
0
0
0
0
0
0
0
0
0
0
0
0
0
0
0
0
0
0
0
0
6.239681441e-09
9.051401819e-10
3.640192455e-09
1.089114038e-08
1.379447698e-09
6.154654121e-11
1.570200821e-11
1.208283547e-12
0
0
0
0
0
0
0
0
0
0
0
0
0
0
0
0
0
0
0
0
0
0
0
0
0
0
0
0
0
0
0
0
0
0
0
0
0
0
0
0
0
0
0
0
0
0
0
0
0
0
0
0
8.646352576e-09
1.128419118e-09
2.308139595e-09
1.621732956e-08
4.480398865e-09
2.711516142e-10
5.831840963e-12
3.718073687e-12
9.787278176e-14
0
0
0
0
0
0
0
0
0
0
0
0
0
0
0
0
0
0
0
0
0
0
0
0
0
0
0
0
0
0
0
0
0
0
0
0
0
0
0
0
0
0
0
0
0
0
0
0
0
0
0
1.12098912e-08
1.47749511e-09
1.508605491e-09
1.329500638e-08
1.202389021e-08
9.553124003e-10
3.110957416e-11
7.174333057e-12
5.330839901e-13
0
0
0
0
0
0
0
0
0
0
0
0
0
0
0
0
0
0
0
0
0
0
0
0
0
0
0
0
0
0
0
0
0
0
0
0
0
0
0
0
0
0
0
0
0
0
0
0
0
0
0
1.665661857e-08
2.318300013e-09
1.301979485e-09
9.283937487e-09
2.764369093e-08
2.791078945e-09
1.159973325e-10
1.93214368e-11
1.095264052e-12
0
0
0
0
0
0
0
0
0
0
0
0
0
0
0
0
0
0
0
0
0
0
0
0
0
0
0
0
0
0
0
0
0
0
0
0
0
0
0
0
0
0
0
0
0
0
0
0
0
0
0
2.507783919e-08
3.830997921e-09
1.528879075e-09
8.624093091e-09
5.053142488e-08
5.800344225e-09
2.940297878e-10
4.548847309e-11
2.678421584e-12
1.745303608e-14
0
0
0
0
0
0
0
0
0
0
0
0
0
0
0
0
0
0
0
0
0
0
0
0
0
0
0
0
0
0
0
0
0
0
0
0
0
0
0
0
0
0
0
0
0
0
0
0
0
0
3.527785636e-08
5.951413191e-09
2.271577863e-09
1.063864414e-08
5.599216597e-08
6.862191556e-09
4.00895265e-10
2.538936575e-11
2.8543711e-12
3.196056634e-14
0
0
0
0
0
0
0
0
0
0
0
0
0
0
0
0
0
0
0
0
0
0
0
0
0
0
0
0
0
0
0
0
0
0
0
0
0
0
0
0
0
0
0
0
0
0
0
0
0
0
4.14531818e-08
8.726039242e-09
1.207197411e-08
8.402781721e-08
5.305472068e-08
4.786796762e-09
3.031858157e-10
1.691600003e-11
1.760579319e-12
2.436878693e-15
0
0
0
0
0
0
0
0
0
0
0
0
0
0
0
0
0
0
0
0
0
0
0
0
0
0
0
0
0
0
0
0
0
0
0
0
0
0
0
0
0
0
0
0
0
0
0
0
0
0
3.498356495e-08
9.438681798e-09
2.334834735e-08
1.69195998e-07
2.947675053e-08
2.337490923e-09
1.446334417e-10
2.13474066e-12
5.93091764e-13
0
0
0
0
0
0
0
0
0
0
0
0
0
0
0
0
0
0
0
0
0
0
0
0
0
0
0
0
0
0
0
0
0
0
0
0
0
0
0
0
0
0
0
0
0
0
0
0
0
0
0
3.26923902e-08
5.731884612e-08
2.831241213e-07
8.510641846e-08
1.011350411e-08
7.547629577e-10
4.770979302e-11
7.456601685e-12
5.18105333e-13
4.816964044e-13
0
0
0
0
0
0
0
0
0
0
0
0
0
0
0
0
0
0
0
0
0
0
0
0
0
0
0
0
0
0
0
0
0
0
0
0
0
0
0
0
0
0
0
0
0
0
0
0
0
0
4.035938194e-07
5.383962717e-07
1.811169607e-07
2.850196786e-08
2.867212851e-09
2.29732116e-10
2.013412657e-11
3.010583861e-12
5.866704764e-13
6.181967996e-13
3.13209637e-13
0
0
0
0
0
0
0
0
0
0
0
0
0
0
0
0
0
0
0
0
0
0
0
0
0
0
0
0
0
0
0
0
0
0
0
0
0
0
0
0
0
0
0
0
0
0
0
0
0
4.966407683e-07
1.87061197e-07
4.134037833e-08
6.053994141e-09
6.643356798e-10
6.276343716e-11
3.749279026e-12
5.253470024e-13
4.000564134e-13
3.490897902e-13
7.890215943e-13
2.889439854e-13
0
0
0
0
0
0
0
0
0
0
0
0
0
0
0
0
0
0
0
0
0
0
0
0
0
0
0
0
0
0
0
0
0
0
0
0
0
0
0
0
0
0
0
0
0
0
0
0
9.39337798e-08
3.068949255e-08
6.765614869e-09
1.080183143e-09
1.361099658e-10
1.500243922e-11
1.510658856e-12
1.583614934e-13
0
2.646484499e-14
0
7.264508756e-13
3.664798571e-13
0
0
0
0
0
0
0
0
0
0
0
0
0
0
0
0
0
0
0
0
0
0
0
0
0
0
0
0
0
0
0
0
0
0
0
0
0
0
0
0
0
0
0
0
0
0
0
1.270562085e-08
4.230134513e-09
9.973478486e-10
1.776423625e-10
2.626449797e-11
3.611874072e-12
6.557483987e-13
7.238873011e-14
1.470951776e-14
2.06908204e-13
0
0
6.096607284e-13
1.642459976e-13
0
0
0
0
0
0
0
0
0
0
0
0
0
0
0
0
0
0
0
0
0
0
0
0
0
0
0
0
0
0
0
0
0
0
0
0
0
0
0
0
0
0
0
0
0
0
1.700336621e-09
5.761527738e-10
1.454504022e-10
2.922846514e-11
5.26464609e-12
9.046692577e-13
1.541073113e-13
1.882120386e-14
2.932142791e-14
2.547875235e-14
2.432184942e-13
0
0
3.522511898e-13
0
0
0
0
0
0
0
0
0
0
0
0
0
0
0
0
0
0
0
0
0
0
0
0
0
0
0
0
0
0
0
0
0
0
0
0
0
0
0
0
0
0
0
0
0
0
2.378593913e-10
8.118253926e-11
1.982394223e-11
4.667975911e-12
9.406621519e-13
2.040530623e-13
6.032121197e-14
0
1.901873874e-15
2.057169825e-14
0
3.968664363e-13
7.876482432e-15
0
3.075492953e-13
0
0
0
0
0
0
0
0
0
0
0
0
0
0
0
0
0
0
0
0
0
0
0
0
0
0
0
0
0
0
0
0
0
0
0
0
0
0
0
0
0
0
0
0
0
3.352046154e-11
1.203835961e-11
3.760358009e-12
1.144302742e-12
2.878923e-13
7.521229212e-14
1.425617014e-14
7.915335986e-16
0
1.65452842e-14
2.071096727e-14
0
3.473228301e-13
5.23785466e-14
2.009237955e-13
4.043982865e-13
0
0
0
0
0
0
0
0
0
0
0
0
0
0
0
0
0
0
0
0
0
0
0
0
0
0
0
0
0
0
0
0
0
0
0
0
0
0
0
0
0
0
0
0
6.234949474e-12
2.459102675e-12
9.485908544e-13
1.931814829e-13
7.454361979e-14
1.534709482e-14
6.724229528e-15
0
0
0
2.9046528e-14
3.274770837e-14
6.528036887e-15
1.327343707e-14
3.554366491e-14
6.17155021e-13
7.394353692e-13
0
0
0
0
0
0
0
0
0
0
0
0
0
0
0
0
0
0
0
0
0
0
0
0
0
0
0
0
0
0
0
0
0
0
0
0
0
0
0
0
0
0
0
1.465569454e-12
6.189875081e-13
1.152695857e-13
6.866036545e-14
1.725211769e-14
9.992960679e-15
5.024869509e-15
0
0
0
9.719772087e-18
2.982070697e-14
0
2.139054173e-13
0
3.235555721e-14
5.069258859e-13
6.328458496e-13
0
0
0
0
0
0
0
0
0
0
0
0
0
0
0
0
0
0
0
0
0
0
0
0
0
0
0
0
0
0
0
0
0
0
0
0
0
0
0
0
0
0
3.097741175e-13
1.150173329e-13
6.215589981e-14
2.760837401e-14
6.506183963e-15
4.95713089e-15
3.594780074e-15
0
0
1.181223776e-15
0
3.016627434e-16
2.233546356e-14
0
4.186967485e-13
1.890580591e-14
1.856641121e-13
4.860190186e-13
0
0
0
0
0
0
0
0
0
0
0
0
0
0
0
0
0
0
0
0
0
0
0
0
0
0
0
0
0
0
0
0
0
0
0
0
0
0
0
0
0
0
9.088655237e-14
4.917366425e-14
2.052363575e-14
1.236968442e-14
8.172274e-15
4.037356483e-15
0
4.152079471e-16
0
3.493606512e-15
2.586466606e-14
1.107248873e-15
3.024411965e-14
5.245596232e-14
2.170923853e-13
3.668066811e-14
0
3.820669142e-13
5.643814228e-13
0
0
0
0
0
0
0
0
0
0
0
0
0
0
0
0
0
0
0
0
0
0
0
0
0
0
0
0
0
0
0
0
0
0
0
0
0
0
0
0
0
2.943153552e-14
1.631579904e-14
7.341270403e-15
4.21725684e-15
0
1.313585317e-15
0
0
3.930622622e-15
0
8.325259376e-15
1.026970658e-14
6.174291468e-15
1.770633167e-14
0
3.564632314e-13
2.145451759e-14
0
4.680294125e-13
6.463451242e-13
0
0
0
0
0
0
0
0
0
0
0
0
0
0
0
0
0
0
0
0
0
0
0
0
0
0
0
0
0
0
0
0
0
0
0
0
0
0
0
0
1.051847432e-14
5.641125096e-15
5.338597867e-15
2.393738789e-15
0
3.191202146e-15
1.131920104e-14
7.167318317e-15
1.843723653e-14
1.277823854e-14
2.596889515e-14
4.554231965e-14
1.146342487e-14
3.608073628e-14
0
3.509889016e-13
5.876129576e-13
0
5.384105345e-13
6.425770951e-13
0
0
0
0
0
0
0
0
0
0
0
0
0
0
0
0
0
0
0
0
0
0
0
0
0
0
0
0
0
0
0
0
0
0
0
0
0
0
0
0
1.298892996e-14
1.244985777e-14
1.201557047e-14
1.821046668e-14
7.439451631e-14
6.310903909e-14
1.185268542e-13
6.617342264e-14
6.018290005e-14
4.477267638e-14
3.1443857e-14
3.6602408e-14
4.145608403e-15
4.343309314e-15
2.04824551e-14
0
4.280639805e-13
6.220917972e-15
0
4.570204663e-13
6.199775903e-13
0
0
0
0
0
0
0
0
0
0
0
0
0
0
0
0
0
0
0
0
0
0
0
0
0
0
0
0
0
0
0
0
0
0
0
0
0
0
0
4.727044325e-14
6.740666178e-14
1.02555371e-13
9.502353149e-14
1.454885549e-13
1.106047007e-13
1.737772389e-13
1.778726706e-13
1.218259343e-13
8.943918166e-14
5.082889731e-14
4.606082577e-14
5.790167035e-14
4.342194056e-14
8.457741004e-14
9.216396705e-14
7.6517206e-13
1.093587706e-12
7.368810654e-13
1.202302628e-12
1.265575615e-12
1.079791518e-12
6.020551708e-15
0
0
0
0
0
0
0
0
0
0
0
0
0
0
0
0
0
0
0
0
0
0
0
0
0
0
0
0
0
0
0
0
0
0
0
0
0
1.292142111e-13
1.963779825e-13
2.044631772e-13
1.811792335e-13
2.306675585e-13
2.527932891e-13
2.121368009e-13
2.181032261e-13
1.450374687e-13
9.403349726e-14
5.753601836e-14
4.864742522e-14
5.499769826e-14
2.341105398e-14
6.237011672e-14
1.041294649e-13
3.094132484e-13
6.154932108e-13
0
0
5.494317558e-13
7.768012572e-13
1.287839548e-15
0
0
0
0
0
0
0
0
0
0
0
0
0
0
0
0
0
0
0
0
0
0
0
0
0
0
0
0
0
0
0
0
0
0
0
0
0
2.185376862e-13
2.72715858e-13
2.658089161e-13
1.954765627e-13
1.705817181e-13
1.724062532e-13
1.819301829e-13
2.025936855e-13
1.405408338e-13
9.104883018e-14
5.506622575e-14
4.017592443e-14
5.662683148e-14
1.976825926e-14
4.350359872e-14
9.853819028e-14
1.113434496e-13
7.899291008e-13
1.060603398e-12
3.58380016e-13
8.926984485e-14
7.657562024e-13
7.255495081e-13
0
0
0
0
0
0
0
0
0
0
0
0
0
0
0
0
0
0
0
0
0
0
0
0
0
0
0
0
0
0
0
0
0
0
0
0
0
2.08270152e-13
2.318079001e-13
1.654545176e-13
1.192931211e-13
9.747465204e-14
1.094920846e-13
1.279234813e-13
1.65024323e-13
1.126755587e-13
6.393217757e-14
3.925244359e-14
2.8452147e-14
5.105242568e-14
2.56532532e-14
2.710698916e-14
4.533569601e-14
0
4.775984291e-13
6.882909091e-13
1.487966259e-14
0
5.36732447e-13
7.203578339e-13
9.8502114e-16
0
0
0
0
0
0
0
0
0
0
0
0
0
0
0
0
0
0
0
0
0
0
0
0
0
0
0
0
0
0
0
0
0
0
0
0
1.337243072e-13
1.558220344e-13
8.491693495e-14
4.146677488e-14
2.229090416e-14
3.887234501e-14
6.261742318e-14
1.068222658e-13
6.361911763e-14
2.666820813e-14
1.373077837e-14
3.409863714e-15
2.225825535e-14
2.764821059e-15
2.323644189e-15
3.638505262e-14
7.099720857e-14
1.195587551e-13
7.322273386e-13
9.453420118e-13
2.443576188e-13
0
6.512703457e-13
6.799241762e-13
0
0
0
0
0
0
0
0
0
0
0
0
0
0
0
0
0
0
0
0
0
0
0
0
0
0
0
0
0
0
0
0
0
0
0
0
6.374303082e-14
3.849042652e-14
1.674432698e-14
2.227210939e-15
3.51460836e-15
1.520374866e-15
8.743239198e-16
1.050154369e-14
2.713588889e-15
0
9.094774261e-16
0
8.845920133e-15
2.412402093e-14
6.115493474e-15
3.221849682e-14
6.715229502e-14
5.003103717e-14
4.851259368e-13
7.072851415e-13
1.058571273e-13
0
7.232689631e-13
1.120346122e-12
1.021114792e-12
3.551936727e-15
0
0
0
0
0
0
0
0
0
0
0
0
0
0
0
0
0
0
0
0
0
0
0
0
0
0
0
0
0
0
0
0
0
0
3.900346448e-15
0
0
0
7.530579448e-16
0
0
1.123347584e-15
0
0
0
0
2.175432968e-15
2.3328231e-14
2.688619699e-15
2.317300794e-14
8.991685538e-14
0
3.773010838e-13
8.428143368e-13
9.824172958e-13
4.280287623e-13
0
8.222519937e-13
8.717363116e-13
2.353887652e-14
0
0
0
0
0
0
0
0
0
0
0
0
0
0
0
0
0
0
0
0
0
0
0
0
0
0
0
0
0
0
0
0
0
0
0
0
0
2.975702433e-15
8.09702355e-16
0
0
6.94811725e-16
0
0
0
0
3.638456596e-16
2.236962278e-14
0
3.682960382e-15
4.39314957e-14
8.920408847e-14
1.288907959e-13
5.359745337e-13
7.484382404e-13
1.444480128e-13
0
8.895973442e-13
1.25544547e-12
1.038644549e-12
3.608391691e-14
0
0
0
0
0
0
0
0
0
0
0
0
0
0
0
0
0
0
0
0
0
0
0
0
0
0
0
0
0
0
0
0
0
0
0
0
0
0
0
0
3.616228188e-16
0
0
0
0
2.017012418e-15
2.213699142e-14
0
2.792450791e-15
3.255421095e-14
7.617474573e-14
7.430872569e-14
4.939353932e-13
7.800079989e-13
4.812593093e-13
5.390568141e-13
6.064163585e-14
8.117859248e-13
8.801816389e-13
3.831035759e-14
0
0
0
0
0
0
0
0
0
0
0
0
0
0
0
0
0
0
0
0
0
0
0
0
0
0
0
0
0
0
0
0
0
0
0
0
0
0
0
0
0
0
0
0
0
1.132343985e-15
1.57217453e-14
0
2.623054111e-15
2.331710121e-14
8.909102462e-14
2.096198887e-15
5.89343713e-14
5.050158624e-13
7.308631481e-13
1.308335426e-13
0
7.900415918e-13
1.185465875e-12
9.835355353e-13
2.782123121e-14
0
0
0
0
0
0
0
0
0
0
0
0
0
0
0
0
0
0
0
0
0
0
0
0
0
0
0
0
0
0
0
0
0
0
0
0
0
0
1.160882789e-17
0
0
0
0
0
9.069940511e-16
9.814881414e-15
0
2.653916723e-16
3.57927444e-15
3.865310014e-14
7.615313113e-14
8.637912323e-14
4.428136679e-13
6.056593854e-13
2.059999131e-14
0
1.154762695e-13
8.179634183e-13
8.658344276e-13
4.271414641e-14
0
0
0
0
0
0
0
0
0
0
0
0
0
0
0
0
0
0
0
0
0
0
0
0
0
0
0
0
0
0
0
0
2.773100556e-17
0
0
0
0
0
7.787726211e-16
0
0
0
0
0
1.297947184e-16
4.507272378e-15
0
1.397879678e-16
2.421983793e-15
3.620530542e-14
8.818563759e-14
9.054274854e-14
4.152708443e-13
7.626023684e-13
1.261920097e-12
4.217523526e-13
0
8.036135767e-13
1.20495086e-12
1.023920879e-12
4.862780281e-14
0
0
0
0
0
0
0
0
0
0
0
0
0
0
0
0
0
0
0
0
0
0
0
0
0
0
0
0
0
0
0
0
0
0
0
0
0
0
0
0
0
3.092838272e-17
0
4.55847348e-16
5.156318294e-15
2.394259589e-14
4.690064572e-15
1.950481102e-15
2.365428709e-14
7.561032862e-14
1.063070664e-15
4.676876407e-14
4.603301447e-13
6.603082969e-13
5.374086488e-14
0
6.400865842e-13
1.041529959e-12
9.412445789e-13
6.165877407e-14
0
0
0
0
0
0
0
0
0
0
0
0
0
0
0
0
0
0
0
0
0
0
0
0
0
0
0
0
0
0
0
0
0
0
0
0
9.896805823e-17
0
0
0
0
1.717562858e-17
0
9.568014765e-16
7.149777164e-15
2.687503195e-14
6.077024347e-15
4.741399342e-16
5.925547351e-16
5.318149667e-15
0
2.565672393e-14
4.031327971e-13
5.399195899e-13
2.011620874e-14
0
0
8.102286886e-13
1.207768277e-12
1.084355812e-12
6.106598012e-14
0
0
0
0
0
0
0
0
0
0
0
0
0
0
0
0
0
0
0
0
0
0
0
0
0
0
0
0
0
0
0
0
0
0
0
0
0
0
0
0
1.79529662e-17
0
1.838541135e-15
8.583619586e-15
2.84088737e-14
7.494816484e-15
1.02714837e-15
3.659366196e-16
5.016130343e-15
0
2.31533697e-14
2.619213307e-13
4.47151196e-13
5.421496781e-13
9.656597645e-14
0
6.600578637e-13
1.054032367e-12
9.379290399e-13
5.152720779e-14
0
0
0
0
0
0
0
0
0
0
0
0
0
0
0
0
0
0
0
0
0
0
0
0
0
0
0
0
0
0
0
0
0
0
0
0
0
0
1.702201623e-16
3.065925066e-16
0
0
3.052720689e-15
9.835142025e-15
2.943626083e-14
8.70146268e-15
1.766759842e-15
1.947447454e-15
2.570361623e-14
3.900779361e-14
1.595459009e-14
5.265264753e-14
4.265375334e-13
5.957154278e-13
8.842000236e-14
0
0
7.43213643e-13
9.860574072e-13
5.763599784e-13
0
0
0
0
0
0
0
0
0
0
0
0
0
0
0
0
0
0
0
0
0
0
0
0
0
0
0
0
0
0
0
0
0
0
0
0
0
0
0
1.688292684e-17
1.585740218e-18
0
1.646886695e-15
5.106261434e-15
1.904909693e-14
5.368850785e-15
1.930668743e-15
1.788536647e-15
2.605886391e-14
9.744004626e-14
1.011404628e-14
3.824320742e-14
4.411527627e-13
7.385329145e-13
9.751486441e-13
7.946003868e-14
0
7.069227846e-13
1.07538316e-12
8.867875516e-13
2.742269765e-14
0
0
0
0
0
0
0
0
0
0
0
0
0
0
0
0
0
0
0
0
0
0
0
0
0
0
0
0
0
0
0
0
0
0
0
0
0
0
2.012182534e-17
2.509540933e-17
1.145881349e-16
8.354665711e-16
3.248840161e-15
1.646694159e-14
3.409339507e-15
6.948467386e-16
6.693312098e-17
4.414569232e-16
1.326535419e-15
0
7.92605889e-15
2.620538443e-13
4.717666238e-13
6.024421441e-13
1.136837584e-13
0
1.120632235e-13
8.023379043e-13
8.256291161e-13
5.171823946e-14
0
0
0
0
0
0
0
0
0
0
0
0
0
0
0
0
0
0
0
0
0
0
0
0
0
0
0
0
0
0
0
0
0
0
0
0
2.579429958e-16
3.141720315e-18
3.146696197e-17
2.288791121e-17
0
7.017415275e-17
1.236080575e-15
1.052291601e-14
1.539808874e-15
7.070184214e-17
1.94928654e-17
3.758287142e-17
0
0
0
3.428436185e-14
4.176269859e-13
5.869450472e-13
7.500130857e-14
0
0
8.40852647e-13
1.118100363e-12
8.40919505e-13
1.552107976e-14
0
0
0
0
0
0
0
0
0
0
0
0
0
0
0
0
0
0
0
0
0
0
0
0
0
0
0
0
0
0
0
0
0
0
0
2.459087374e-16
5.293729444e-17
2.79959258e-17
2.075384756e-17
0
1.118711025e-17
1.076381734e-15
1.018863631e-14
1.372387015e-15
1.390873554e-17
1.049889839e-17
4.360254873e-17
0
0
0
2.545921331e-14
4.176259473e-13
6.671920939e-13
9.868712953e-13
0
0
7.428156736e-13
1.073415636e-12
9.129939053e-13
7.049263568e-14
0
0
0
0
0
0
0
0
0
0
0
0
0
0
0
0
0
0
0
0
0
0
0
0
0
0
0
0
0
0
0
0
0
0
0
0
2.42133825e-17
2.656769262e-17
0
0
8.380070991e-18
1.075340169e-15
1.016906194e-14
1.399583151e-15
8.02457554e-17
7.46306529e-18
6.508374114e-17
9.175760133e-16
8.898793951e-15
0
2.0603078e-14
3.711540143e-13
4.789413495e-13
6.098364908e-13
1.902859486e-13
0
0
8.417229584e-13
1.218047868e-12
1.018443616e-12
7.933457487e-14
0
0
0
0
0
0
0
0
0
0
0
0
0
0
0
0
0
0
0
0
0
0
0
0
0
0
0
0
0
0
0
0
0
0
2.629266535e-17
3.014732676e-17
2.418842242e-17
0
0
6.577739124e-18
1.073143047e-15
1.013170203e-14
1.419488677e-15
1.641403246e-16
3.031237161e-17
8.099510617e-17
1.038213965e-15
1.677531766e-14
0
0
1.393038459e-13
4.124044094e-13
5.088098048e-13
0
0
0
7.447517299e-13
1.146538171e-12
9.81293435e-13
7.113692055e-14
0
0
0
0
0
0
0
0
0
0
0
0
0
0
0
0
0
0
0
0
0
0
0
0
0
0
0
0
0
0
0
0
0
0
3.188029469e-17
2.651279523e-17
0
0
0
0
0
0
0
0
0
4.624680121e-17
6.945439162e-17
3.192582367e-16
0
0
2.17669258e-14
3.73395322e-13
4.854363475e-13
6.520078122e-13
0
0
4.215537796e-13
8.909977493e-13
8.81563446e-13
1.052852525e-13
0
0
0
0
0
0
0
0
0
0
0
0
0
0
0
0
0
0
0
0
0
0
0
0
0
0
0
0
0
0
0
0
0
3.110509616e-17
2.685087899e-17
2.367402463e-17
4.321439612e-18
0
0
0
0
0
0
0
0
4.482641045e-17
3.989775763e-17
0
0
0
1.864704018e-14
3.615358975e-13
4.329546057e-13
5.128267063e-13
2.005702626e-13
0
0
7.619419808e-13
1.090136545e-12
8.403654646e-13
2.502763986e-14
0
0
0
0
0
0
0
0
0
0
0
0
0
0
0
0
0
0
0
0
0
0
0
0
0
0
0
1.06089811e-18
2.498165626e-18
0
0
3.047809775e-17
2.625796257e-17
2.38163756e-17
0
0
0
0
0
0
0
0
1.864087363e-18
0
4.242975458e-17
2.836034757e-17
0
0
0
6.513811181e-15
2.496082767e-13
4.296049319e-13
5.537250483e-13
2.249420364e-13
0
0
7.234042644e-13
1.106062817e-12
9.345082343e-13
7.877025104e-14
0
0
0
0
0
0
0
0
0
0
0
0
0
0
0
0
0
0
0
0
0
0
0
0
0
0
2.720044506e-18
2.791847762e-18
0
0
0
2.681813611e-17
2.434233952e-17
1.6002341e-17
0
0
0
0
0
0
0
0
3.944056469e-17
0
4.218644155e-17
2.689201429e-17
0
0
0
0
1.363495106e-13
4.274562844e-13
6.30076849e-13
7.958520294e-13
0
0
4.50369193e-13
9.581001063e-13
1.132323981e-12
8.69212898e-13
1.94233287e-14
0
0
0
0
0
0
0
0
0
0
0
0
0
0
0
0
0
0
0
0
0
0
0
0
0
0
0
0
2.9707111e-17
2.544950479e-17
2.404962229e-17
2.286021921e-17
9.936061779e-18
3.590769069e-17
0
0
0
0
4.274938942e-17
3.464338436e-16
3.614522097e-16
1.622494007e-16
0
4.247831782e-17
2.721143797e-17
0
0
0
0
2.05947184e-14
3.638990913e-13
4.206698836e-13
4.119743507e-13
0
0
0
7.767455399e-13
1.137156948e-12
9.334994017e-13
5.457480213e-14
0
0
0
0
0
0
0
0
0
0
0
0
0
0
0
0
0
0
0
0
0
0
0
0
0
0
0
2.675596384e-17