/*--------------------------------*- C++ -*----------------------------------*\
  =========                 |
  \\      /  F ield         | OpenFOAM: The Open Source CFD Toolbox
   \\    /   O peration     | Website:  https://openfoam.org
    \\  /    A nd           | Version:  10
     \\/     M anipulation  |
\*---------------------------------------------------------------------------*/
FoamFile
{
    format      ascii;
    class       volScalarField;
    location    "0.02499901733";
    object      CH2CHO;
}
// * * * * * * * * * * * * * * * * * * * * * * * * * * * * * * * * * * * * * //

dimensions      [0 0 0 0 0 0 0];

internalField   nonuniform List<scalar> 
5170
(
0
0
0
0
0
0
0
0
0
0
0
0
0
0
0
0
0
0
0
0
0
0
0
0
0
0
0
0
0
0
0
0
0
0
0
0
0
0
0
0
0
0
0
0
0
0
0
0
0
0
0
0
0
0
0
0
0
0
0
0
0
0
0
0
0
0
0
0
0
0
0
0
0
0
0
0
0
0
0
0
0
0
0
0
0
0
0
0
0
0
0
0
0
0
0
0
0
0
0
0
4.165955851e-20
0
0
1.796709611e-20
3.559874752e-20
2.087655616e-20
3.568718957e-20
2.978011686e-20
3.676191807e-20
1.845170751e-20
1.118700913e-20
2.002783429e-20
1.567973978e-20
1.251567466e-20
7.444029901e-21
3.297233566e-21
6.109336013e-21
4.654580236e-21
2.548436797e-21
8.231241614e-22
0
0
1.071888979e-21
1.107467486e-20
0
0
0
0
4.27289478e-19
0
0
0
0
1.713714587e-14
2.155394362e-13
1.894697518e-13
2.348640609e-15
0
0
1.318703194e-12
1.227237282e-12
0
1.480517094e-14
8.689974701e-13
1.446899042e-13
2.47753209e-13
9.914830911e-13
9.417416702e-13
1.790375694e-13
1.679119859e-14
2.044335868e-14
2.383637313e-13
2.355305554e-13
0
3.042107895e-14
3.548897054e-14
0
0
1.113281528e-15
7.759568948e-15
1.143230642e-14
8.794986912e-16
0
1.907275535e-14
2.720800395e-14
2.057342066e-14
1.266760542e-14
1.523035604e-14
1.80047805e-14
2.348230283e-14
2.542097589e-14
1.582254147e-14
1.640533644e-14
2.109449207e-14
1.818546775e-14
2.143970715e-14
2.161004507e-14
2.109575831e-14
2.149414766e-14
1.523203507e-14
1.659327209e-14
2.153635142e-14
2.142295878e-14
1.81064509e-14
1.354967727e-14
1.460736678e-14
1.802559477e-14
1.792472054e-14
1.485392691e-14
1.275269489e-14
1.451166746e-13
8.029076257e-14
3.010968968e-14
1.702205619e-14
1.334843086e-14
1.471790877e-11
9.238218137e-12
1.481851469e-12
3.29025173e-13
1.127754311e-14
0
0
0
2.405104241e-11
7.812486832e-10
0
0
1.073242986e-11
1.71830991e-10
4.52395265e-09
0
0
2.465834204e-11
3.70658724e-10
6.74664983e-09
0
8.855574898e-13
3.368551097e-11
5.88445897e-10
8.135132659e-09
0
3.947766315e-12
6.172961406e-11
8.096920499e-10
9.098045872e-09
0
8.530660694e-12
7.324125976e-11
1.121358626e-09
1.101191125e-08
6.59392363e-13
1.767170001e-11
1.151535017e-10
1.595987954e-09
1.397209652e-08
2.776642093e-12
2.415980786e-11
1.908940201e-10
2.256074909e-09
1.738116383e-08
4.670635196e-12
2.471099065e-11
2.909975055e-10
2.887725504e-09
1.934159276e-08
8.192857182e-12
3.543357538e-11
4.256158548e-10
3.591036928e-09
2.108590634e-08
2.068131581e-11
8.349154992e-11
6.295788909e-10
4.570994313e-09
2.378099196e-08
1.881326225e-11
1.141550785e-10
9.212759339e-10
5.840746111e-09
2.694267457e-08
8.239331221e-12
1.830290683e-10
1.303720572e-09
7.266316208e-09
2.946639877e-08
5.645718405e-11
3.107804803e-10
1.868780816e-09
9.154183627e-09
3.231408422e-08
1.602903936e-10
6.59415439e-10
2.735251391e-09
1.158733988e-08
3.502192504e-08
2.072683303e-10
9.983477665e-10
4.162488172e-09
1.528429719e-08
3.817593597e-08
7.600941555e-10
1.96492939e-09
6.736617175e-09
2.040748917e-08
4.328344027e-08
1.977713449e-09
4.01842425e-09
1.098501164e-08
2.795079498e-08
4.949956809e-08
4.985376044e-09
8.5003692e-09
1.865554744e-08
3.709282928e-08
5.449854645e-08
1.130845844e-08
1.588802832e-08
2.651805248e-08
4.08763222e-08
5.100447544e-08
2.050076231e-08
2.439509223e-08
3.226993833e-08
4.191973847e-08
5.055904414e-08
2.583160135e-08
2.818706941e-08
3.312948541e-08
4.006286568e-08
4.860983725e-08
2.087042758e-08
2.187010996e-08
2.391800292e-08
2.673771411e-08
3.004275648e-08
1.019038922e-08
1.03600168e-08
1.064856355e-08
1.092589501e-08
1.106792628e-08
3.092899258e-09
3.090033764e-09
3.041815512e-09
2.928604118e-09
2.763623657e-09
6.542639243e-10
6.443026403e-10
6.178921572e-10
5.752794015e-10
5.190581075e-10
1.253280546e-10
1.227847136e-10
1.165762299e-10
1.067691765e-10
9.396766855e-11
2.349784163e-11
2.287119441e-11
2.139148505e-11
1.926424507e-11
1.684708418e-11
4.209197405e-12
4.120801193e-12
4.076317836e-12
3.706155935e-12
3.285641029e-12
8.262280276e-13
7.335321217e-13
6.864346911e-13
6.911254744e-13
6.106502229e-13
1.164600183e-13
1.307784833e-13
1.692244523e-13
1.685103119e-13
1.554195141e-13
4.844357667e-14
4.85206718e-14
4.825684322e-14
4.606912572e-14
4.249006797e-14
1.730048834e-14
1.71513713e-14
1.67962756e-14
1.621584808e-14
1.549201173e-14
1.168962693e-14
1.182358967e-14
1.211516827e-14
1.254638896e-14
1.305182987e-14
2.060182269e-14
2.121497881e-14
2.251725791e-14
2.429609089e-14
2.63173769e-14
4.049267979e-14
4.206312235e-14
4.565896254e-14
5.158239988e-14
5.873855328e-14
5.97868919e-14
6.138971904e-14
6.487017309e-14
6.999685148e-14
7.656698249e-14
4.845967605e-14
4.980916863e-14
5.26544761e-14
5.66510775e-14
6.148996621e-14
2.702453175e-14
2.759968353e-14
2.873745582e-14
3.01658969e-14
3.154998613e-14
9.010618409e-15
8.984040734e-15
9.053925161e-15
8.817061227e-15
7.661345586e-15
1.110400641e-15
6.444918695e-16
2.75834839e-16
8.248588557e-16
6.362516268e-16
0
0
0
0
0
6.247455151e-16
6.144294189e-16
6.002335906e-16
5.874421512e-16
5.767392619e-16
2.375091485e-16
1.795523436e-16
1.124486895e-16
7.741828998e-17
0
0
0
0
0
0
0
0
0
0
0
0
0
0
0
0
6.768089782e-17
5.858289614e-17
4.606844889e-17
2.685095155e-17
2.517772474e-17
7.035772482e-17
6.964972155e-17
6.481491481e-17
6.252701198e-17
4.008469082e-17
0
0
0
0
0
0
0
0
0
0
0
0
0
0
0
0
0
0
0
0
0
0
0
0
0
0
0
0
0
0
0
0
0
0
0
0
0
0
0
0
0
0
0
0
0
0
0
0
0
0
0
0
0
0
0
4.287014192e-18
4.272983065e-18
4.234685254e-18
4.159817682e-18
4.115798074e-18
3.505692423e-18
3.512091551e-18
3.469785489e-18
3.229070165e-18
2.502049607e-18
3.782640272e-18
3.78731657e-18
3.773554291e-18
3.647586e-18
3.688553465e-18
1.808945678e-17
1.80931504e-17
1.812002262e-17
1.770953596e-17
1.622343233e-17
1.732031023e-17
1.746247555e-17
1.753281467e-17
1.729390031e-17
1.591890238e-17
1.689059511e-17
1.672905814e-17
1.604402418e-17
1.548235421e-17
1.313422283e-17
4.744059857e-17
4.860853642e-17
5.136993776e-17
5.585484323e-17
6.2569215e-17
2.139397568e-16
2.124686179e-16
2.093725663e-16
2.048190862e-16
1.996583054e-16
2.633807127e-16
2.580593217e-16
2.473184185e-16
2.330186644e-16
2.175081367e-16
0
0
0
0
0
3.440962433e-09
2.796138413e-08
3.495927245e-08
4.011587898e-08
4.147206281e-08
4.653779202e-08
5.351886275e-08
5.779676458e-08
5.490483347e-08
5.183323602e-08
5.137514922e-08
5.191019167e-08
5.135045858e-08
5.030778291e-08
4.904884495e-08
4.83998918e-08
5.03702175e-08
5.283453595e-08
5.535493086e-08
5.182265418e-08
5.51539084e-08
5.560350635e-08
3.252060665e-08
1.114214992e-08
2.634484214e-09
4.789842116e-10
8.593046173e-11
1.548679103e-11
3.067762596e-12
5.484627836e-13
1.428648122e-13
3.983514812e-14
1.481794892e-14
1.366924797e-14
2.855388322e-14
6.403480539e-14
8.178260194e-14
6.524483481e-14
3.237240547e-14
5.992130528e-15
0
0
5.429202712e-16
0
0
0
0
3.662502155e-17
2.541027004e-17
0
0
0
0
0
0
0
0
0
0
0
4.222798705e-18
1.690215279e-18
2.24462859e-18
1.533911601e-17
1.497545177e-17
4.424999482e-18
6.739956552e-17
1.951968484e-16
2.063788237e-16
0
3.000604097e-09
1.183104186e-09
6.574473687e-11
8.296576832e-12
3.077172788e-12
4.346645613e-08
3.894255211e-07
2.235747788e-08
6.844500894e-10
5.251453328e-10
5.344566313e-08
1.430976689e-07
1.45711333e-08
8.96735873e-10
2.124739056e-09
6.001342676e-08
6.456268185e-08
2.69886126e-08
2.249122418e-09
1.037999308e-09
8.138109727e-08
7.417485459e-08
3.172516952e-07
3.124141895e-08
2.712874265e-09
9.667563966e-08
9.928530894e-08
4.843067265e-07
6.056129177e-08
6.012972858e-09
1.091776826e-07
1.03125035e-07
4.08269651e-07
6.113746296e-08
7.160472582e-09
1.0838145e-07
8.765744599e-08
2.555606036e-07
4.641723926e-08
6.390460946e-09
9.462179893e-08
7.00823486e-08
1.618528228e-07
9.75500907e-08
1.426308055e-08
8.260313873e-08
6.184504517e-08
1.343492855e-07
2.016300933e-07
3.238342496e-08
7.413829483e-08
6.074495159e-08
1.327894259e-07
2.879753291e-07
5.126646352e-08
7.066278875e-08
6.034755846e-08
1.327695873e-07
3.253693297e-07
6.350443566e-08
6.855431686e-08
6.066653561e-08
1.238002753e-07
3.059173072e-07
7.463635781e-08
6.065874346e-08
5.769092048e-08
1.136950202e-07
2.714772295e-07
1.024098072e-07
5.468528638e-08
5.328813226e-08
1.0583686e-07
2.448302193e-07
1.40847999e-07
5.026136948e-08
5.025439248e-08
1.015953445e-07
2.26978142e-07
1.819592383e-07
4.898835865e-08
5.213261449e-08
1.025475231e-07
2.255483979e-07
2.025635321e-07
4.866913278e-08
5.856770898e-08
1.16370115e-07
2.538258419e-07
1.714136223e-07
5.166954605e-08
6.932595522e-08
1.43924086e-07
3.337815516e-07
9.75820594e-08
5.112879934e-08
6.447851716e-08
1.06413969e-07
1.885345261e-07
2.937369329e-07
6.148107727e-08
8.363976791e-08
1.389130003e-07
2.502346077e-07
4.238438551e-07
6.722597722e-08
9.384046519e-08
1.325147496e-07
1.688914521e-07
1.644299555e-07
3.706971889e-08
4.209505977e-08
4.2885871e-08
3.76278871e-08
2.707923109e-08
1.160167092e-08
1.091792146e-08
8.96328662e-09
6.394564413e-09
3.953808766e-09
2.563135449e-09
2.149883024e-09
1.571765705e-09
1.01098931e-09
5.784728631e-10
4.454131942e-10
3.504790696e-10
2.418318899e-10
1.481489829e-10
8.182823075e-11
7.846665862e-11
6.048724852e-11
4.134961891e-11
2.553535925e-11
1.534448166e-11
1.416155372e-11
1.134164872e-11
7.441217878e-12
3.457335915e-12
2.709140984e-12
2.879224069e-12
2.626680559e-12
1.796709802e-12
9.910326188e-13
4.74944062e-13
4.827193725e-13
2.943235104e-13
2.880060919e-13
2.445463638e-13
1.457013355e-13
1.292471056e-13
1.041734494e-13
8.852117617e-14
6.817385411e-14
4.398374063e-14
3.747282308e-14
3.103895303e-14
2.348254507e-14
1.984821995e-14
1.515981486e-14
1.396310684e-14
1.205547683e-14
1.035806782e-14
9.309817527e-15
9.95075135e-15
1.46659576e-14
1.73212454e-14
2.154936292e-14
2.696867082e-14
3.240922473e-14
3.141534551e-14
4.010987649e-14
5.196390522e-14
6.541159493e-14
8.778744503e-14
7.139340308e-14
8.244148826e-14
9.488373393e-14
1.20630081e-13
1.602106358e-13
8.97811705e-14
1.039213144e-13
1.198074386e-13
1.416244828e-13
1.622812392e-13
7.141941129e-14
8.451897042e-14
8.011173334e-14
8.501870155e-14
1.005487732e-13
3.379851274e-14
3.291982158e-14
2.673617894e-14
2.796617236e-14
3.861407557e-14
3.646588284e-15
8.541312972e-16
0
1.161409359e-15
1.360315132e-14
0
0
0
8.467354953e-17
4.252046962e-16
0
0
1.687135487e-16
0
0
4.882073756e-16
1.261608228e-16
0
0
0
0
0
0
0
0
0
0
0
0
0
0
0
0
6.598477538e-16
1.09470803e-16
5.709394167e-16
7.197348845e-16
1.262747199e-16
8.214624302e-17
0
4.966385274e-17
3.813984473e-17
1.181033151e-17
0
0
5.047957381e-18
0
0
0
0
0
0
0
0
0
0
0
0
0
0
0
0
0
0
0
0
0
0
0
0
0
0
0
0
0
0
0
0
0
0
0
0
0
0
0
0
0
0
0
0
0
0
0
0
0
0
0
0
0
0
0
0
3.858830198e-18
3.857733872e-18
3.224329342e-18
4.833739766e-18
5.143381195e-18
4.247193125e-18
2.427080951e-18
3.969800733e-18
2.402412264e-18
3.914285532e-18
4.002280284e-18
4.101216428e-18
0
0
0
1.412103191e-17
1.949231791e-17
1.922976818e-17
1.802325225e-17
1.849233188e-17
1.86176799e-17
1.840819789e-17
1.816503794e-17
1.776986833e-17
1.828833509e-17
1.815430354e-17
1.837762318e-17
1.838526936e-17
0
0
5.228418018e-18
3.191760415e-17
4.045171614e-17
6.906437107e-17
7.779194182e-17
8.730830607e-17
9.101589166e-17
9.253700274e-17
1.823338549e-16
1.700496513e-16
1.667855461e-16
1.675638394e-16
1.561167108e-16
1.83217573e-16
1.402411772e-16
1.094917546e-17
0
0
0
0
0
0
0
7.0816119e-14
0
0
0
0
0
0
0
0
0
0
0
0
0
0
0
0
0
0
0
0
0
0
0
0
0
0
0
0
0
0
0
0
0
0
0
0
0
0
0
0
0
0
0
0
0
0
0
0
0
0
0
0
0
0
0
0
0
0
0
1.224224137e-11
1.05822675e-12
0
0
0
0
0
0
0
0
0
0
0
0
0
0
0
0
0
0
0
0
0
0
0
0
0
0
0
0
0
0
0
0
0
0
0
0
0
0
0
0
0
0
0
0
0
0
0
0
0
0
0
0
0
0
0
0
0
0
9.714722912e-11
1.501131381e-15
0
0
0
0
0
0
0
0
0
0
0
0
0
0
0
0
0
0
0
0
0
0
0
0
0
0
0
0
0
0
0
0
0
0
0
0
0
0
0
0
0
0
0
0
0
0
0
0
0
0
0
0
0
0
0
0
0
0
1.032520401e-09
1.441232512e-11
2.20051824e-12
0
0
0
0
0
0
0
0
0
0
0
0
0
0
0
0
0
0
0
0
0
0
0
0
0
0
0
0
0
0
0
0
0
0
0
0
0
0
0
0
0
0
0
0
0
0
0
0
0
0
0
0
0
0
0
0
0
7.183348338e-09
2.61659861e-10
6.886107979e-13
1.285213671e-12
0
0
0
0
0
0
0
0
0
0
0
0
0
0
0
0
0
0
0
0
0
0
0
0
0
0
0
0
0
0
0
0
0
0
0
0
0
0
0
0
0
0
0
0
0
0
0
0
0
0
0
0
0
0
0
0
5.935618753e-09
2.284905283e-09
6.506552461e-11
1.770854615e-11
7.887477969e-13
0
0
0
0
0
0
0
0
0
0
0
0
0
0
0
0
0
0
0
0
0
0
0
0
0
0
0
0
0
0
0
0
0
0
0
0
0
0
0
0
0
0
0
0
0
0
0
0
0
0
0
0
0
0
0
1.820795356e-09
6.360441703e-09
5.679649408e-10
1.537908588e-11
5.261224444e-12
0
0
0
0
0
0
0
0
0
0
0
0
0
0
0
0
0
0
0
0
0
0
0
0
0
0
0
0
0
0
0
0
0
0
0
0
0
0
0
0
0
0
0
0
0
0
0
0
0
0
0
0
0
0
0
8.692000982e-10
4.052657202e-09
2.71844345e-09
1.510178677e-10
1.063863461e-11
2.623229353e-12
0
0
0
0
0
0
0
0
0
0
0
0
0
0
0
0
0
0
0
0
0
0
0
0
0
0
0
0
0
0
0
0
0
0
0
0
0
0
0
0
0
0
0
0
0
0
0
0
0
0
0
0
0
0
1.480116892e-09
2.106893725e-09
6.896597416e-09
1.007412577e-09
4.292806354e-11
1.419308271e-11
7.242933577e-13
0
0
0
0
0
0
0
0
0
0
0
0
0
0
0
0
0
0
0
0
0
0
0
0
0
0
0
0
0
0
0
0
0
0
0
0
0
0
0
0
0
0
0
0
0
0
0
0
0
0
0
0
0
3.478414037e-09
1.043005096e-09
6.456620065e-09
3.753248833e-09
2.973144937e-10
9.051985373e-12
3.899063702e-12
0
0
0
0
0
0
0
0
0
0
0
0
0
0
0
0
0
0
0
0
0
0
0
0
0
0
0
0
0
0
0
0
0
0
0
0
0
0
0
0
0
0
0
0
0
0
0
0
0
0
0
0
0
6.233133952e-09
9.002381598e-10
3.604598996e-09
1.080334875e-08
1.374273151e-09
6.181490008e-11
1.57873895e-11
1.217436929e-12
0
0
0
0
0
0
0
0
0
0
0
0
0
0
0
0
0
0
0
0
0
0
0
0
0
0
0
0
0
0
0
0
0
0
0
0
0
0
0
0
0
0
0
0
0
0
0
0
0
0
0
0
8.638953764e-09
1.124324426e-09
2.281609212e-09
1.600042592e-08
4.468440591e-09
2.726966647e-10
5.961605996e-12
3.701179864e-12
9.812543713e-14
0
0
0
0
0
0
0
0
0
0
0
0
0
0
0
0
0
0
0
0
0
0
0
0
0
0
0
0
0
0
0
0
0
0
0
0
0
0
0
0
0
0
0
0
0
0
0
0
0
0
0
1.119783537e-08
1.471435806e-09
1.478048048e-09
1.300335944e-08
1.201796367e-08
9.640706434e-10
3.158751755e-11
7.262985821e-12
5.371785834e-13
0
0
0
0
0
0
0
0
0
0
0
0
0
0
0
0
0
0
0
0
0
0
0
0
0
0
0
0
0
0
0
0
0
0
0
0
0
0
0
0
0
0
0
0
0
0
0
0
0
0
0
1.66373752e-08
2.30901783e-09
1.274144857e-09
9.057326206e-09
2.76008832e-08
2.824934353e-09
1.182589754e-10
1.993277379e-11
1.138726724e-12
0
0
0
0
0
0
0
0
0
0
0
0
0
0
0
0
0
0
0
0
0
0
0
0
0
0
0
0
0
0
0
0
0
0
0
0
0
0
0
0
0
0
0
0
0
0
0
0
0
0
0
2.501761236e-08
3.811312596e-09
1.497247161e-09
8.398627756e-09
5.043707651e-08
5.91742571e-09
3.026872656e-10
4.733185338e-11
2.846293451e-12
2.207894839e-14
0
0
0
0
0
0
0
0
0
0
0
0
0
0
0
0
0
0
0
0
0
0
0
0
0
0
0
0
0
0
0
0
0
0
0
0
0
0
0
0
0
0
0
0
0
0
0
0
0
0
3.525022182e-08
5.923562319e-09
2.170083863e-09
1.001771611e-08
5.711948203e-08
7.193708104e-09
4.238766117e-10
2.016511334e-11
2.952943002e-12
3.864121553e-14
0
0
0
0
0
0
0
0
0
0
0
0
0
0
0
0
0
0
0
0
0
0
0
0
0
0
0
0
0
0
0
0
0
0
0
0
0
0
0
0
0
0
0
0
0
0
0
0
0
0
4.175689084e-08
8.676874722e-09
1.110823451e-08
7.439025984e-08
5.605147913e-08
5.103027425e-09
3.228485125e-10
2.108922296e-11
1.919163366e-12
4.468848868e-15
0
0
0
0
0
0
0
0
0
0
0
0
0
0
0
0
0
0
0
0
0
0
0
0
0
0
0
0
0
0
0
0
0
0
0
0
0
0
0
0
0
0
0
0
0
0
0
0
0
0
3.592569608e-08
9.571817273e-09
2.328471099e-08
1.673142737e-07
3.151342666e-08
2.581442666e-09
1.612276855e-10
4.054781373e-12
6.288001352e-13
0
0
0
0
0
0
0
0
0
0
0
0
0
0
0
0
0
0
0
0
0
0
0
0
0
0
0
0
0
0
0
0
0
0
0
0
0
0
0
0
0
0
0
0
0
0
0
0
0
0
0
3.136318765e-08
5.160467023e-08
2.566002298e-07
9.001549753e-08
1.135836013e-08
8.689242814e-10
5.443991302e-11
8.144360225e-12
5.719956705e-13
4.695171013e-13
0
0
0
0
0
0
0
0
0
0
0
0
0
0
0
0
0
0
0
0
0
0
0
0
0
0
0
0
0
0
0
0
0
0
0
0
0
0
0
0
0
0
0
0
0
0
0
0
0
0
4.152718314e-07
5.05147045e-07
1.944641394e-07
3.208929477e-08
3.358462782e-09
2.704319506e-10
2.390000455e-11
3.309494777e-12
6.097711578e-13
6.055192553e-13
3.020699432e-13
0
0
0
0
0
0
0
0
0
0
0
0
0
0
0
0
0
0
0
0
0
0
0
0
0
0
0
0
0
0
0
0
0
0
0
0
0
0
0
0
0
0
0
0
0
0
0
0
0
5.168827698e-07
2.018782967e-07
4.626901315e-08
7.028840776e-09
7.885581424e-10
7.359586325e-11
3.279175625e-12
4.761721631e-13
3.706640902e-13
1.259394045e-13
7.623792656e-13
2.79321608e-13
0
0
0
0
0
0
0
0
0
0
0
0
0
0
0
0
0
0
0
0
0
0
0
0
0
0
0
0
0
0
0
0
0
0
0
0
0
0
0
0
0
0
0
0
0
0
0
0
1.037173712e-07
3.421950338e-08
7.733007959e-09
1.267030485e-09
1.613197811e-10
1.762248038e-11
1.737216938e-12
1.818162372e-13
0
0
0
7.004692605e-13
3.543379185e-13
0
0
0
0
0
0
0
0
0
0
0
0
0
0
0
0
0
0
0
0
0
0
0
0
0
0
0
0
0
0
0
0
0
0
0
0
0
0
0
0
0
0
0
0
0
0
0
1.421474079e-08
4.778443399e-09
1.150066488e-09
2.084496651e-10
3.083294732e-11
4.391639539e-12
7.477401533e-13
8.182031916e-14
1.386178052e-14
1.808527403e-13
0
0
5.852467989e-13
1.562144146e-13
0
0
0
0
0
0
0
0
0
0
0
0
0
0
0
0
0
0
0
0
0
0
0
0
0
0
0
0
0
0
0
0
0
0
0
0
0
0
0
0
0
0
0
0
0
0
1.908031891e-09
6.535665484e-10
1.67583879e-10
3.393633947e-11
5.962019123e-12
7.562139628e-13
1.61494873e-13
2.566524137e-14
4.77579995e-14
2.701133828e-14
2.151042737e-13
4.13892288e-15
0
3.338304534e-13
0
0
0
0
0
0
0
0
0
0
0
0
0
0
0
0
0
0
0
0
0
0
0
0
0
0
0
0
0
0
0
0
0
0
0
0
0
0
0
0
0
0
0
0
0
0
2.657537118e-10
9.154650435e-11
2.257294114e-11
5.28561292e-12
1.103173722e-12
2.344096813e-13
6.320822589e-14
0
0
3.34921392e-14
0
3.348021533e-13
0
0
2.905641756e-13
0
0
0
0
0
0
0
0
0
0
0
0
0
0
0
0
0
0
0
0
0
0
0
0
0
0
0
0
0
0
0
0
0
0
0
0
0
0
0
0
0
0
0
0
0
3.697101918e-11
1.332630288e-11
4.140961172e-12
1.172693694e-12
3.101339471e-13
8.498258073e-14
1.602463837e-14
4.619496031e-16
0
9.407759911e-15
3.398498125e-14
0
2.97696467e-13
3.463229619e-14
1.95770038e-13
3.88230824e-13
0
0
0
0
0
0
0
0
0
0
0
0
0
0
0
0
0
0
0
0
0
0
0
0
0
0
0
0
0
0
0
0
0
0
0
0
0
0
0
0
0
0
0
0
6.81016875e-12
2.662115031e-12
1.045399392e-12
2.981359474e-13
8.921177406e-14
1.716346149e-14
7.4968213e-15
0
0
2.692184489e-16
4.728356407e-14
4.538646536e-14
0
0
4.014687232e-14
6.016257876e-13
7.190144012e-13
0
0
0
0
0
0
0
0
0
0
0
0
0
0
0
0
0
0
0
0
0
0
0
0
0
0
0
0
0
0
0
0
0
0
0
0
0
0
0
0
0
0
0
1.566767272e-12
6.308780623e-13
1.021848975e-13
7.302425938e-14
2.097755383e-14
1.115106243e-14
5.321173152e-15
0
0
1.289794026e-16
0
4.448073945e-14
0
1.85063127e-13
0
3.586538246e-14
4.960583185e-13
6.13754883e-13
0
0
0
0
0
0
0
0
0
0
0
0
0
0
0
0
0
0
0
0
0
0
0
0
0
0
0
0
0
0
0
0
0
0
0
0
0
0
0
0
0
0
3.289211498e-13
1.587005518e-13
6.592953732e-14
2.895883396e-14
7.274992478e-15
5.643942595e-15
3.748339708e-15
0
0
7.987197236e-16
1.201222944e-16
0
3.558793363e-14
0
3.790771048e-13
0
1.829801888e-13
4.691271582e-13
0
0
0
0
0
0
0
0
0
0
0
0
0
0
0
0
0
0
0
0
0
0
0
0
0
0
0
0
0
0
0
0
0
0
0
0
0
0
0
0
0
0
9.53731086e-14
5.187056862e-14
2.203747248e-14
1.291646906e-14
7.0479203e-15
4.223609522e-15
0
3.520506499e-16
0
3.869826715e-15
2.563977932e-14
8.717273204e-16
4.937676148e-14
7.368780345e-14
1.974232662e-13
0
1.929773915e-15
3.721392753e-13
5.460072666e-13
0
0
0
0
0
0
0
0
0
0
0
0
0
0
0
0
0
0
0
0
0
0
0
0
0
0
0
0
0
0
0
0
0
0
0
0
0
0
0
0
0
3.060484535e-14
1.844256696e-14
8.996362727e-15
5.261856008e-15
7.373036744e-16
1.501624344e-15
0
0
3.621164974e-15
4.811426211e-16
6.49841554e-15
9.39926891e-15
4.551377902e-15
3.195789057e-14
0
3.210215179e-13
0
1.739815451e-14
4.561489148e-13
6.280733895e-13
0
0
0
0
0
0
0
0
0
0
0
0
0
0
0
0
0
0
0
0
0
0
0
0
0
0
0
0
0
0
0
0
0
0
0
0
0
0
0
0
1.053732047e-14
7.029401215e-15
5.712110918e-15
1.715321629e-15
0
0
4.263111e-15
2.00116883e-15
1.806751944e-14
1.278795643e-14
2.418652199e-14
4.487680598e-14
1.116484139e-14
5.378764218e-14
0
3.343807756e-13
5.342832773e-13
0
5.228520858e-13
6.25767747e-13
0
0
0
0
0
0
0
0
0
0
0
0
0
0
0
0
0
0
0
0
0
0
0
0
0
0
0
0
0
0
0
0
0
0
0
0
0
0
0
0
1.198370923e-14
1.1754714e-14
1.230556821e-14
1.992506363e-14
6.854942813e-14
5.784548305e-14
1.074721851e-13
6.294135957e-14
5.256215011e-14
4.235272506e-14
3.086885662e-14
3.357279775e-14
2.661194984e-15
3.540125046e-15
3.45213895e-14
0
3.928391209e-13
0
1.864273579e-14
4.459317355e-13
6.019294691e-13
0
0
0
0
0
0
0
0
0
0
0
0
0
0
0
0
0
0
0
0
0
0
0
0
0
0
0
0
0
0
0
0
0
0
0
0
0
0
0
4.626938738e-14
6.701399879e-14
1.02519025e-13
9.581443347e-14
1.387228519e-13
1.127555229e-13
1.673296881e-13
1.703479649e-13
1.156485537e-13
8.910087801e-14
5.10812531e-14
4.49912069e-14
5.835080335e-14
4.255754243e-14
1.004873756e-13
9.159746877e-14
7.384898935e-13
1.03856694e-12
7.205064057e-13
1.181850574e-12
1.251216533e-12
1.059227418e-12
4.991872607e-15
0
0
0
0
0
0
0
0
0
0
0
0
0
0
0
0
0
0
0
0
0
0
0
0
0
0
0
0
0
0
0
0
0
0
0
0
0
1.262640438e-13
1.718002345e-13
2.034783796e-13
1.817862198e-13
2.275925419e-13
2.457972513e-13
2.131756186e-13
2.109334024e-13
1.392145459e-13
8.856025231e-14
5.742757493e-14
4.762806814e-14
5.574122805e-14
2.363285944e-14
6.217995994e-14
1.274006006e-13
3.054190145e-13
5.837005776e-13
0
0
5.360169963e-13
7.588158405e-13
3.739181426e-16
0
0
0
0
0
0
0
0
0
0
0
0
0
0
0
0
0
0
0
0
0
0
0
0
0
0
0
0
0
0
0
0
0
0
0
0
0
2.181905732e-13
2.487811617e-13
2.628845934e-13
1.952800028e-13
1.73905115e-13
1.71833467e-13
1.80786193e-13
1.96164609e-13
1.346350738e-13
8.550220622e-14
5.4752226e-14
4.059487999e-14
5.649386736e-14
1.9504307e-14
4.411903396e-14
1.15089541e-13
1.139480636e-13
7.633685942e-13
9.990381217e-13
3.364264519e-13
1.005041915e-13
7.48216799e-13
7.080607432e-13
0
0
0
0
0
0
0
0
0
0
0
0
0
0
0
0
0
0
0
0
0
0
0
0
0
0
0
0
0
0
0
0
0
0
0
0
0
2.094448097e-13
2.290897319e-13
1.665328132e-13
1.198187014e-13
1.017541113e-13
1.086283406e-13
1.277832801e-13
1.588131282e-13
1.118903519e-13
5.967892484e-14
3.875650791e-14
2.903359446e-14
5.115775083e-14
2.527331589e-14
2.606131551e-14
6.151371083e-14
0
4.598256742e-13
6.563459068e-13
1.341467725e-15
0
5.197451126e-13
7.017078218e-13
2.396668483e-16
0
0
0
0
0
0
0
0
0
0
0
0
0
0
0
0
0
0
0
0
0
0
0
0
0
0
0
0
0
0
0
0
0
0
0
0
1.367154399e-13
1.540406803e-13
8.621437541e-14
4.216983783e-14
2.693624073e-14
3.835901131e-14
6.29140465e-14
1.010929957e-13
6.346506895e-14
2.268371909e-14
1.363204459e-14
3.969083749e-15
1.94488412e-14
2.439282645e-15
9.689508061e-16
3.580411721e-14
8.896503227e-14
1.341137186e-13
7.078947134e-13
8.869597846e-13
2.245770797e-13
1.171924385e-13
6.362407722e-13
6.625388067e-13
0
0
0
0
0
0
0
0
0
0
0
0
0
0
0
0
0
0
0
0
0
0
0
0
0
0
0
0
0
0
0
0
0
0
0
0
6.395587677e-14
3.880894435e-14
1.631970068e-14
1.156024954e-15
3.571863529e-15
0
7.480869979e-16
1.096985469e-14
3.179953556e-15
0
7.546977119e-16
0
7.861364985e-15
2.464658317e-14
4.910052426e-15
3.174212414e-14
8.336993705e-14
4.993943578e-14
4.69082517e-13
6.762058778e-13
8.692300237e-14
0
7.047370726e-13
1.104451067e-12
9.986811941e-13
2.846280281e-15
0
0
0
0
0
0
0
0
0
0
0
0
0
0
0
0
0
0
0
0
0
0
0
0
0
0
0
0
0
0
0
0
0
0
6.050582429e-15
0
0
0
3.983142827e-16
0
0
9.112826711e-16
0
0
0
0
1.728885891e-15
2.377305699e-14
3.16795504e-15
2.423066489e-14
1.02060983e-13
0
3.685463596e-13
8.19746217e-13
9.322555682e-13
3.987664771e-13
0
8.050289459e-13
8.550784773e-13
2.3387641e-14
0
0
0
0
0
0
0
0
0
0
0
0
0
0
0
0
0
0
0
0
0
0
0
0
0
0
0
0
0
0
0
0
0
0
0
0
0
2.100619715e-15
0
0
0
3.526464617e-16
0
0
0
0
2.439998251e-16
2.263775989e-14
2.427864412e-17
4.23260495e-15
4.391297726e-14
1.060996129e-13
1.367032971e-13
5.214118786e-13
7.177350879e-13
1.248361259e-13
0
8.722284817e-13
1.23795863e-12
1.018957928e-12
3.541413317e-14
0
0
0
0
0
0
0
0
0
0
0
0
0
0
0
0
0
0
0
0
0
0
0
0
0
0
0
0
0
0
0
0
0
0
0
0
0
0
0
0
0
0
0
0
0
1.424542182e-15
2.243693289e-14
0
2.817179006e-15
3.241188503e-14
9.28821347e-14
8.256286307e-14
4.780390043e-13
7.518601657e-13
4.615649925e-13
4.934667465e-13
6.724582806e-14
7.967523414e-13
8.631384693e-13
3.834757875e-14
0
0
0
0
0
0
0
0
0
0
0
0
0
0
0
0
0
0
0
0
0
0
0
0
0
0
0
0
0
0
0
0
0
0
0
0
0
0
0
6.302883451e-15
8.220592994e-17
0
0
0
0
3.538266654e-16
1.666607769e-14
0
2.141759138e-15
2.430000262e-14
1.015966107e-13
2.497745028e-15
6.839710915e-14
4.89399888e-13
6.968768629e-13
1.120007626e-13
0
7.707410376e-13
1.168118886e-12
9.642753879e-13
2.731571562e-14
0
0
0
0
0
0
0
0
0
0
0
0
0
0
0
0
0
0
0
0
0
0
0
0
0
0
0
0
0
0
0
0
0
0
0
0
0
0
0
0
0
0
0
0
2.979905642e-16
1.146132838e-14
0
4.414293962e-16
3.831977125e-15
3.856992863e-14
9.246529142e-14
9.114047766e-14
4.261524567e-13
5.761288175e-13
4.135297625e-15
0
1.18240046e-13
8.027708943e-13
8.490129565e-13
4.281354658e-14
0
0
0
0
0
0
0
0
0
0
0
0
0
0
0
0
0
0
0
0
0
0
0
0
0
0
0
0
0
0
0
0
0
0
0
0
0
0
3.95687765e-16
0
0
0
0
0
0
6.315331943e-15
0
2.484948497e-16
2.508745252e-15
3.610576824e-14
1.043188672e-13
9.503449963e-14
4.047214461e-13
7.52661027e-13
1.190553874e-12
3.888118293e-13
0
7.848912188e-13
1.187844683e-12
1.003939544e-12
4.849510573e-14
0
0
0
0
0
0
0
0
0
0
0
0
0
0
0
0
0
0
0
0
0
0
0
0
0
0
0
0
0
0
0
0
0
0
0
0
0
0
0
0
0
0
0
5.793312542e-16
5.844412158e-15
2.422588981e-14
4.403050417e-15
1.802626735e-15
2.407650392e-14
8.82269782e-14
5.246239789e-16
5.520487856e-14
4.450434546e-13
6.323524668e-13
3.621127129e-14
0
6.233356782e-13
1.027412082e-12
9.254127384e-13
6.254535902e-14
0
0
0
0
0
0
0
0
0
0
0
0
0
0
0
0
0
0
0
0
0
0
0
0
0
0
0
0
0
0
0
0
0
0
0
0
0
0
0
0
0
0
0
1.148520228e-15
7.790787863e-15
2.728991218e-14
5.749462104e-15
0
0
4.355399709e-15
0
3.049866639e-14
3.848086157e-13
5.118476954e-13
6.297800852e-15
0
0
7.926344721e-13
1.192270139e-12
1.065718099e-12
6.119382047e-14
0
0
0
0
0
0
0
0
0
0
0
0
0
0
0
0
0
0
0
0
0
0
0
0
0
0
0
0
0
0
0
0
0
0
0
0
0
0
0
0
0
0
2.007281636e-15
9.21226367e-15
2.880897079e-14
7.138484299e-15
5.573184009e-17
0
3.405571774e-15
5.965684538e-16
2.382720273e-14
2.496436996e-13
4.337002233e-13
5.133897948e-13
6.697913657e-14
0
6.428913434e-13
1.040027748e-12
9.225892459e-13
5.215248021e-14
0
0
0
0
0
0
0
0
0
0
0
0
0
0
0
0
0
0
0
0
0
0
0
0
0
0
0
0
0
0
0
0
0
0
0
0
0
0
6.650229871e-17
2.487196459e-16
0
0
3.14765779e-15
1.044090053e-14
2.982033499e-14
8.353344158e-15
2.090147134e-15
1.659160478e-15
2.385689093e-14
5.3219011e-14
1.232426309e-14
5.817240239e-14
4.094437011e-13
5.666564763e-13
7.262020216e-14
0
0
7.252766529e-13
9.70332311e-13
5.637554659e-13
0
0
0
0
0
0
0
0
0
0
0
0
0
0
0
0
0
0
0
0
0
0
0
0
0
0
0
0
0
0
0
0
0
0
0
0
0
0
0
3.66944936e-19
0
0
1.657018585e-15
5.703180541e-15
2.021919566e-14
4.936198031e-15
2.092550482e-15
1.588991226e-15
2.694897117e-14
1.091181335e-13
8.47082447e-15
4.373049901e-14
4.263927858e-13
7.229327855e-13
9.210451572e-13
5.977003449e-14
0
6.887923887e-13
1.059658419e-12
8.704003719e-13
2.74263429e-14
0
0
0
0
0
0
0
0
0
0
0
0
0
0
0
0
0
0
0
0
0
0
0
0
0
0
0
0
0
0
0
0
0
0
0
0
0
9.306822146e-18
1.680101094e-17
2.591354108e-17
7.203103901e-17
8.827302383e-16
3.823215451e-15
1.762298473e-14
4.008883099e-15
8.123079757e-16
0
0
8.979548661e-16
0
9.700707165e-15
2.504062863e-13
4.600690319e-13
5.77912918e-13
8.510007649e-14
0
1.144655093e-13
7.863197362e-13
8.087923579e-13
5.195556679e-14
0
0
0
0
0
0
0
0
0
0
0
0
0
0
0
0
0
0
0
0
0
0
0
0
0
0
0
0
0
0
0
0
0
0
0
0
1.824202396e-16
2.696942766e-17
2.271552617e-17
1.431796921e-17
0
7.842967005e-17
1.695236294e-15
1.226754071e-14
2.024898875e-15
1.466937628e-16
0
0
0
0
0
4.017755117e-14
4.005637148e-13
5.582252396e-13
5.988842691e-14
0
0
8.239082878e-13
1.101564387e-12
8.242559571e-13
1.526768929e-14
0
0
0
0
0
0
0
0
0
0
0
0
0
0
0
0
0
0
0
0
0
0
0
0
0
0
0
0
0
0
0
0
0
0
0
2.205061478e-16
6.078946035e-17
2.457276967e-17
1.221858953e-17
0
6.409877495e-18
1.50676256e-15
1.187842904e-14
1.833860055e-15
7.028621648e-17
0
0
0
0
0
3.047010919e-14
4.022723357e-13
6.555891097e-13
9.205610264e-13
0
0
7.277506206e-13
1.058809822e-12
8.974141102e-13
7.121843158e-14
0
0
0
0
0
0
0
0
0
0
0
0
0
0
0
0
0
0
0
0
0
0
0
0
0
0
0
0
0
0
0
0
0
0
3.60650676e-18
1.581322536e-17
1.889235724e-17
1.627049368e-17
0
0
3.273558936e-18
1.504235449e-15
1.185186534e-14
1.859612149e-15
1.412789965e-16
0
0
0
6.218006464e-15
0
2.451774529e-14
3.528819777e-13
4.693909137e-13
5.869505741e-13
1.632874143e-13
0
0
8.233416186e-13
1.201239351e-12
9.988109209e-13
7.920939236e-14
0
0
0
0
0
0
0
0
0
0
0
0
0
0
0
0
0
0
0
0
0
0
0
0
0
0
0
0
0
0
0
0
1.322040687e-18
6.919126489e-18
1.90871806e-17
2.27126162e-17
1.350779871e-17
0
0
1.450338429e-18
1.497922876e-15
1.178942682e-14
1.877057157e-15
2.185864335e-16
0
0
3.049529226e-16
1.525809869e-14
0
0
1.312287787e-13
3.964325554e-13
4.827781371e-13
0
0
0
7.268569333e-13
1.131028281e-12
9.65210309e-13
7.195840424e-14
0
0
0
0
0
0
0
0
0
0
0
0
0
0
0
0
0
0
0
0
0
0
0
0
0
0
0
0
0
0
0
1.380709455e-18
4.773570168e-18
6.856325302e-18
2.183766981e-17
1.838131141e-17
0
0
0
0
0
0
3.227270547e-17
4.181199307e-17
5.381812936e-18
0
0
2.293246326e-16
0
0
2.619419619e-14
3.557643202e-13
4.751654379e-13
6.165137428e-13
0
0
4.111141644e-13
8.775418224e-13
8.651147463e-13
1.05173197e-13
0
0
0
0
0
0
0
0
0
0
0
0
0
0
0
0
0
0
0
0
0
0
0
0
0
0
0
0
0
0
0
4.476719602e-18
7.316563009e-18
2.110968379e-17
2.160742113e-17
1.778027243e-17
0
0
0
0
0
0
1.777450982e-17
4.394176775e-17
0
0
0
0
0
0
2.215329489e-14
3.424352863e-13
4.221515193e-13
4.926187091e-13
1.71263742e-13
0
0
7.434132435e-13
1.073671544e-12
8.236094454e-13
2.491236612e-14
0
0
0
0
0
0
0
0
0
0
0
0
0
0
0
0
0
0
0
0
0
0
0
0
0
0
0
0
2.415018612e-18
2.487933685e-18
7.915634766e-18
2.063750652e-17
2.117106533e-17
1.670087838e-17
0
0
0
0
0
0
0
1.364791833e-17
2.465609237e-17
2.756611091e-18
0
0
0
0
0
7.612651821e-15
2.36975869e-13
4.166459014e-13
5.30552327e-13
1.975502888e-13
0
0
7.051864492e-13
1.090265155e-12
9.186258884e-13
7.967648648e-14
0
0
0
0
0
0
0
0
0
0
0
0
0
0
0
0
0
0
0
0
0
0
0
0
0
0
2.81091856e-18
3.380070581e-18
1.400167015e-18
3.575346675e-18
0
1.810255745e-17
1.933162873e-17
1.316521282e-17
0
0
0
0
0
0
3.71843163e-17
7.159614459e-17
5.960195735e-17
6.869828213e-18
0
0
0
0
0
0
1.280258625e-13
4.136457698e-13
6.161861164e-13
7.49167482e-13
0
0
4.397576549e-13
9.462316614e-13
1.118329773e-12
8.505520882e-13
1.953948208e-14
0
0
0
0
0
0
0
0
0
0
0
0
0
0
0
0
0
0
0
0
0
0
0
0
0
1.646888795e-18
3.12081958e-18
7.616849573e-18
1.994331126e-17
2.019436957e-17
1.974254602e-17
1.78199027e-17
5.65159399e-18
2.004179761e-17
0
0
0
0
0
3.45865469e-16
3.703567855e-16
1.860538749e-16
9.535342678e-18
0
0
2.199949189e-17
0
0
0
2.468193431e-14
3.451105276e-13
4.090747391e-13
3.938375396e-13
0
0
0
7.58691698e-13
1.121710243e-12
9.179720979e-13
5.522620015e-14
0
0
0
0
0
0
0
0
0
0
0
0
0
0
0
0
0
0
0
0
0
0
0
0
0
2.756932531e-18