/*--------------------------------*- C++ -*----------------------------------*\
  =========                 |
  \\      /  F ield         | OpenFOAM: The Open Source CFD Toolbox
   \\    /   O peration     | Website:  https://openfoam.org
    \\  /    A nd           | Version:  10
     \\/     M anipulation  |
\*---------------------------------------------------------------------------*/
FoamFile
{
    format      ascii;
    class       volScalarField;
    location    "0.02499901733";
    object      CH2CO;
}
// * * * * * * * * * * * * * * * * * * * * * * * * * * * * * * * * * * * * * //

dimensions      [0 0 0 0 0 0 0];

internalField   nonuniform List<scalar> 
5170
(
0
0
0
0
0
0
0
0
0
0
0
0
0
0
0
0
0
0
0
0
0
0
0
0
0
0
0
0
0
0
0
0
0
0
0
0
0
0
0
0
0
0
0
0
0
0
0
0
0
0
0
0
0
0
0
0
0
0
0
0
0
0
0
0
0
0
0
0
0
0
0
0
0
0
0
0
0
0
0
0
0
0
0
0
0
0
0
0
0
0
0
0
0
7.519895976e-14
9.965936382e-13
2.612419253e-13
2.476955568e-12
2.135369786e-11
1.520653099e-10
7.341010187e-10
0
9.928087889e-15
0
0
2.983957267e-15
2.490948785e-15
8.001711429e-15
3.132060363e-15
4.834584078e-15
3.3697931e-15
2.608592211e-15
5.634519198e-15
2.121412871e-15
2.257252397e-15
1.731388538e-15
1.108981702e-15
2.269809095e-15
7.021627772e-16
6.297697104e-16
3.941575451e-16
0
4.870491674e-16
6.734389254e-17
0
2.474829549e-15
0
0
6.42524156e-16
1.790269674e-15
0
0
0
0
6.371440551e-12
0
8.359078543e-10
3.318562932e-11
0
0
3.09417429e-09
3.529558088e-09
4.674762122e-10
0
2.114740493e-09
1.012845813e-10
6.68324984e-10
2.826191004e-09
2.429923512e-09
1.432687594e-09
6.363816909e-11
6.223528639e-11
9.05579162e-10
8.616821351e-10
4.244264315e-11
1.126990353e-10
9.371839587e-11
0
1.274039331e-11
3.236271975e-11
4.558405424e-11
2.7305302e-11
4.125582747e-12
2.241362014e-11
6.055496628e-11
9.434631103e-11
5.59457364e-11
3.563357224e-11
4.021081664e-11
6.199997827e-11
8.393554154e-11
6.911991324e-11
4.529327808e-11
4.618416688e-11
6.679562611e-11
6.241005907e-11
5.532485333e-11
5.692401588e-11
5.677537622e-11
6.178523323e-11
4.175136343e-11
3.747786791e-11
5.349792887e-11
5.420764839e-11
4.59987936e-11
2.878542592e-11
2.977974972e-11
4.08983617e-11
4.119816617e-11
3.227249054e-11
2.360240694e-11
4.903503404e-10
1.711388099e-10
5.894018003e-11
3.141540502e-11
2.316847504e-11
5.451394857e-08
1.614174978e-08
2.413988112e-09
5.105952632e-10
2.146449446e-11
1.921158001e-11
1.490761266e-10
2.260390972e-09
3.305515343e-08
4.334412556e-07
4.585990342e-10
3.540782163e-09
5.123738947e-08
6.730775288e-07
7.21015348e-06
2.865776896e-09
2.018003168e-08
2.42413045e-07
2.427450221e-06
1.721415323e-05
1.104594715e-08
7.006965875e-08
7.015683319e-07
5.43791912e-06
2.676766245e-05
3.318625811e-08
1.902917386e-07
1.598638437e-06
9.613098734e-06
3.507807948e-05
8.651950605e-08
4.535192914e-07
3.17353031e-06
1.494088391e-05
4.409354265e-05
2.037691486e-07
9.737026847e-07
5.655701496e-06
2.158453054e-05
5.512444961e-05
4.441476388e-07
1.921851296e-06
9.263206006e-06
2.944331278e-05
6.685219611e-05
9.131564603e-07
3.533145009e-06
1.407608723e-05
3.795057324e-05
7.745049789e-05
1.784216082e-06
6.061106279e-06
2.000455315e-05
4.664184917e-05
8.660337617e-05
3.338512973e-06
9.781187589e-06
2.688220193e-05
5.531221867e-05
9.495058211e-05
6.210669697e-06
1.494110044e-05
3.453954962e-05
6.416212302e-05
0.000103433664
1.077776654e-05
2.153012602e-05
4.297230888e-05
7.341186071e-05
0.0001124187053
1.77240569e-05
2.978768017e-05
5.239789563e-05
8.334958561e-05
0.0001221307577
2.757873452e-05
3.999528099e-05
6.30899566e-05
9.422059447e-05
0.0001326775875
4.005960993e-05
5.233476329e-05
7.544537613e-05
0.0001064343533
0.0001443215505
5.60685056e-05
6.771046467e-05
9.01659303e-05
0.0001204555287
0.0001574193761
7.499866521e-05
8.57311899e-05
0.0001071366746
0.0001365828846
0.000172749795
9.608724841e-05
0.0001060701006
0.000126320292
0.0001542922589
0.000188461732
0.0001190907247
0.0001277069362
0.0001449965721
0.0001681306432
0.0001947964399
0.0001401889459
0.0001458634278
0.0001568995497
0.0001708084268
0.0001854645658
0.000148072665
0.0001503773662
0.0001547884453
0.0001600034219
0.0001647426687
0.0001384059692
0.0001388313585
0.0001394597686
0.0001397739607
0.0001392424993
0.0001182570308
0.0001179323791
0.0001170588872
0.0001154832332
0.0001130675192
9.515781237e-05
9.466868028e-05
9.350697387e-05
9.166388853e-05
8.914075034e-05
7.371309406e-05
7.326883495e-05
7.224984588e-05
7.067603916e-05
6.858464273e-05
5.676186946e-05
5.64182286e-05
5.562725988e-05
5.441587924e-05
5.282321932e-05
4.337464395e-05
4.311960192e-05
4.253496301e-05
4.164332805e-05
4.047630195e-05
3.289977032e-05
3.271547505e-05
3.229397408e-05
3.165212673e-05
3.081317835e-05
2.468610582e-05
2.455581408e-05
2.42577688e-05
2.380378687e-05
2.321026066e-05
1.82367505e-05
1.814676085e-05
1.794041359e-05
1.762553968e-05
1.721339165e-05
1.319690078e-05
1.313635243e-05
1.299685617e-05
1.278336339e-05
1.250341845e-05
9.304909114e-06
9.26534841e-06
9.17359701e-06
9.03261748e-06
8.847362554e-06
6.357582105e-06
6.332608842e-06
6.274173304e-06
6.183948593e-06
6.065114835e-06
4.187773884e-06
4.172636389e-06
4.136819544e-06
4.081195474e-06
4.007752824e-06
2.647937982e-06
2.639188979e-06
2.618188975e-06
2.585346982e-06
2.5418692e-06
1.601667143e-06
1.596875079e-06
1.585162784e-06
1.566690443e-06
1.542164476e-06
9.242502869e-07
9.21780625e-07
9.155993259e-07
9.057483421e-07
8.926257988e-07
5.076764421e-07
5.064873885e-07
5.034173624e-07
4.984604986e-07
4.918317141e-07
2.649535136e-07
2.644244838e-07
2.629984815e-07
2.606570585e-07
2.575110598e-07
1.311969871e-07
1.309824672e-07
1.30367707e-07
1.293356063e-07
1.279405174e-07
6.157951098e-08
6.15022943e-08
6.125885689e-08
6.083734406e-08
6.026307317e-08
2.738579609e-08
2.736238986e-08
2.727520911e-08
2.711722288e-08
2.689961679e-08
1.154237816e-08
1.153733131e-08
1.150988904e-08
1.1456336e-08
1.138136345e-08
4.61685896e-09
4.616819501e-09
4.609692256e-09
4.593690453e-09
4.57067822e-09
1.759206344e-09
1.759945619e-09
1.758707524e-09
1.754703046e-09
1.748636708e-09
6.446856888e-10
6.452099844e-10
6.452784832e-10
6.445671798e-10
6.433297992e-10
2.336848404e-10
2.339446841e-10
2.341187378e-10
2.340853153e-10
2.339317421e-10
8.929777235e-11
8.939343957e-11
8.946741454e-11
8.947709511e-11
8.945107988e-11
4.034574713e-11
4.036540635e-11
4.036592296e-11
4.033723283e-11
4.028601455e-11
2.366400628e-11
2.365494854e-11
2.362504717e-11
2.357147061e-11
2.349721156e-11
1.789669742e-11
1.788245829e-11
1.784711169e-11
1.779054331e-11
1.771388112e-11
1.533181853e-11
1.531620767e-11
1.52805306e-11
1.522544448e-11
1.515160703e-11
1.377529988e-11
1.376082556e-11
1.372846027e-11
1.367872798e-11
1.361201033e-11
1.258500955e-11
1.257160315e-11
1.254180421e-11
1.249636796e-11
1.24356682e-11
1.155571184e-11
1.154373154e-11
1.151714911e-11
1.147664353e-11
1.142253585e-11
1.063182574e-11
1.062110986e-11
1.059735277e-11
1.056116487e-11
1.051281438e-11
9.788858057e-12
9.779314583e-12
9.758169174e-12
9.725980293e-12
9.682987473e-12
9.022838712e-12
9.014336203e-12
8.995511947e-12
8.966893172e-12
8.928740015e-12
8.333259009e-12
8.325640606e-12
8.308765049e-12
8.283078049e-12
8.248774791e-12
7.711642075e-12
7.704821099e-12
7.68971827e-12
7.666735017e-12
7.636045454e-12
7.15516113e-12
7.149026292e-12
7.135449596e-12
7.114791284e-12
7.087200132e-12
6.655482296e-12
6.649907111e-12
6.637577272e-12
6.618819652e-12
6.593760098e-12
6.199155412e-12
6.194053247e-12
6.182803318e-12
6.165715733e-12
6.142902796e-12
5.777697616e-12
5.773067967e-12
5.762846107e-12
5.747312897e-12
5.726571322e-12
5.38200954e-12
5.377854006e-12
5.368688949e-12
5.35478695e-12
5.336210791e-12
5.010231652e-12
5.006496973e-12
4.998239809e-12
4.985678761e-12
4.968896602e-12
4.660019312e-12
4.656703169e-12
4.649365349e-12
4.638196674e-12
4.623270588e-12
4.340420559e-12
4.337489647e-12
4.331000724e-12
4.321119224e-12
4.30790736e-12
4.079038896e-12
4.076404463e-12
4.070569911e-12
4.061679665e-12
4.049780638e-12
1.571057435e-06
3.066516129e-05
5.121988316e-05
6.003443984e-05
6.640824389e-05
7.718527544e-05
9.181800959e-05
0.0001050448321
0.0001143270227
0.0001211706752
0.0001277086934
0.000135209455
0.0001435873542
0.0001527429811
0.0001627296916
0.0001736281822
0.0001858859768
0.0002005903672
0.0002144611473
0.0002134773952
0.0001946153177
0.0001670521284
0.0001382449366
0.0001110557361
8.71962053e-05
6.70097245e-05
5.164066257e-05
3.961387391e-05
3.019493653e-05
2.277440648e-05
1.691235461e-05
1.230055387e-05
8.714571396e-06
5.981166421e-06
3.956846598e-06
2.512462105e-06
1.526088269e-06
8.84365593e-07
4.878745211e-07
2.557627811e-07
1.272399305e-07
6.001593934e-08
2.682789775e-08
1.136796367e-08
4.572261979e-09
1.751887082e-09
6.454377343e-10
2.34930271e-10
8.981295294e-11
4.036972808e-11
2.347355445e-11
1.766271092e-11
1.50950916e-11
1.355901725e-11
1.238695016e-11
1.137900227e-11
1.047378826e-11
9.648270331e-12
8.897982748e-12
8.221067931e-12
7.611239919e-12
7.064860189e-12
6.573423634e-12
6.124355413e-12
5.709696264e-12
5.321094844e-12
4.955274173e-12
4.61116742e-12
4.29719737e-12
4.040117272e-12
3.787184408e-06
1.460345092e-06
8.542135131e-08
1.163712892e-08
1.783809141e-09
9.501961498e-05
0.0004780376918
2.747846946e-05
9.045111775e-07
1.429875535e-07
0.0001259876899
0.0003550378863
3.364677293e-05
1.79414067e-06
3.403097999e-07
0.0001233394866
0.0002357929374
6.868743205e-05
5.354157945e-06
5.217704781e-07
0.0001236877266
0.0002283140289
0.0002959639576
2.938043245e-05
2.188669344e-06
0.000138601862
0.0002805123398
0.0005008128395
6.238014503e-05
5.725378161e-06
0.0001593525775
0.0003185860202
0.0005428591997
7.966738703e-05
9.054929375e-06
0.0001726806672
0.0003118234466
0.0004541317454
8.677296707e-05
1.152382433e-05
0.0001769349248
0.0002874166836
0.0003758565114
0.0001629882469
2.381055176e-05
0.0001781707285
0.0002718922053
0.0003532626466
0.0002649937732
4.295979964e-05
0.0001810678066
0.000269915976
0.000361943422
0.000353775163
6.327711374e-05
0.0001866657062
0.0002750858472
0.0003743739036
0.0004068676673
8.113349541e-05
0.0001937566136
0.0002807314638
0.0003782799604
0.000426220773
0.0001250987306
0.0002016629767
0.0002857066164
0.0003783476673
0.0004325206116
0.000181363801
0.0002104125973
0.0002916089031
0.0003803441555
0.0004368703472
0.000236707521
0.00021985502
0.0002978143681
0.0003824145685
0.0004407024447
0.0002854812343
0.0002305231683
0.0003056225718
0.000387417665
0.0004456476247
0.0003047027288
0.000243887822
0.0003169207376
0.0003950554457
0.0004414335754
0.0002527901337
0.0002546132128
0.0003214698271
0.0003918246035
0.0004301031535
0.0001277430724
0.0002416528834
0.0002797635299
0.0003053394982
0.0003022583673
0.0002418018553
0.0002083787356
0.0002200814566
0.000217680742
0.000196837841
0.0001574325098
0.000170894189
0.0001690398245
0.0001580067511
0.0001384694924
0.0001134542731
0.0001374021579
0.0001309667282
0.0001195354147
0.0001043928239
8.740350003e-05
0.0001087808113
0.0001020428087
9.247903266e-05
8.107972877e-05
6.895876069e-05
8.49353976e-05
7.927723432e-05
7.187687481e-05
6.343578235e-05
5.463383904e-05
6.516491177e-05
6.084291835e-05
5.538774347e-05
4.928298993e-05
4.296579962e-05
5.02593068e-05
4.707039173e-05
4.308762823e-05
3.865107651e-05
3.405636372e-05
3.861025772e-05
3.629816888e-05
3.341269462e-05
3.019251604e-05
2.684150233e-05
2.948214086e-05
2.782602834e-05
2.574787706e-05
2.341589585e-05
2.097289825e-05
2.228099787e-05
2.111241302e-05
1.963015735e-05
1.795321312e-05
1.618256465e-05
1.658162741e-05
1.577349992e-05
1.473192811e-05
1.354103753e-05
1.227237667e-05
1.208735457e-05
1.154217623e-05
1.082446336e-05
9.993382221e-06
9.099391869e-06
8.583524785e-06
8.226453881e-06
7.743724422e-06
7.176546627e-06
6.560150875e-06
5.905335548e-06
5.679653984e-06
5.364462278e-06
4.988028882e-06
4.57454834e-06
3.916345299e-06
3.779693116e-06
3.581130626e-06
3.339613185e-06
3.071364811e-06
2.493140728e-06
2.414448151e-06
2.294444375e-06
2.145462336e-06
1.978047073e-06
1.51841907e-06
1.475628998e-06
1.406380313e-06
1.318411862e-06
1.218328668e-06
8.823917304e-07
8.605864438e-07
8.22581173e-07
7.730362901e-07
7.159199764e-07
4.882146777e-07
4.778979207e-07
4.58129313e-07
4.315919505e-07
4.005638699e-07
2.567256838e-07
2.522534933e-07
2.425405719e-07
2.290581803e-07
2.130517664e-07
1.281268516e-07
1.263892123e-07
1.218960812e-07
1.154136214e-07
1.075884463e-07
6.063451815e-08
6.00554169e-08
5.810459268e-08
5.516007329e-08
5.154007426e-08
2.719694482e-08
2.705010718e-08
2.625752275e-08
2.499563653e-08
2.341260317e-08
1.15644726e-08
1.155143282e-08
1.125105743e-08
1.07411963e-08
1.008706099e-08
4.667507295e-09
4.682460464e-09
4.576566639e-09
4.382309381e-09
4.12684436e-09
1.794338642e-09
1.807735724e-09
1.77309293e-09
1.703234838e-09
1.608895689e-09
6.629705977e-10
6.705988428e-10
6.602062099e-10
6.364062908e-10
6.03202876e-10
2.416159628e-10
2.450090922e-10
2.419217124e-10
2.340254963e-10
2.227132838e-10
9.213205534e-11
9.333537343e-11
9.230942744e-11
8.963807419e-11
8.57721617e-11
4.107183016e-11
4.135954507e-11
4.089355416e-11
3.986179952e-11
3.841452152e-11
2.361497679e-11
2.356480299e-11
2.325832865e-11
2.274999295e-11
2.208429859e-11
1.764107691e-11
1.749221367e-11
1.72335229e-11
1.688317335e-11
1.645776654e-11
1.502895647e-11
1.48624784e-11
1.463550725e-11
1.43557277e-11
1.402913621e-11
1.348728972e-11
1.332978491e-11
1.312769401e-11
1.288555451e-11
1.260751182e-11
1.23186341e-11
1.217431526e-11
1.199420643e-11
1.17810807e-11
1.153798317e-11
1.131719994e-11
1.118832539e-11
1.102800476e-11
1.083856324e-11
1.062239115e-11
1.041814446e-11
1.0302737e-11
1.015969358e-11
9.99095861e-12
9.798464208e-12
9.598699184e-12
9.495862189e-12
9.368489926e-12
9.218452407e-12
9.047609128e-12
8.854023771e-12
8.76271709e-12
8.649451423e-12
8.515488403e-12
8.362337528e-12
8.181427952e-12
8.099276325e-12
7.997473194e-12
7.877298514e-12
7.740111374e-12
7.57565604e-12
7.502140341e-12
7.411242523e-12
7.304131549e-12
7.18193135e-12
7.03266529e-12
6.966380575e-12
6.884553133e-12
6.788144941e-12
6.678010485e-12
6.543945826e-12
6.483417878e-12
6.408585946e-12
6.320925892e-12
6.221103591e-12
6.097311652e-12
6.042176823e-12
5.97446066e-12
5.894884122e-12
5.804152522e-12
5.685044182e-12
5.634880158e-12
5.573352096e-12
5.501136405e-12
5.418958851e-12
5.299064522e-12
5.253939298e-12
5.198461189e-12
5.133235966e-12
5.058683141e-12
4.9355204e-12
4.895031133e-12
4.845153436e-12
4.786419892e-12
4.719344808e-12
4.593685643e-12
4.557701189e-12
4.513254268e-12
4.46082699e-12
4.400873808e-12
4.281763704e-12
4.249887717e-12
4.210406707e-12
4.163733126e-12
4.110268454e-12
4.026175758e-12
3.997421103e-12
3.961800401e-12
3.91965033e-12
3.871322242e-12
2.007620247e-10
1.392129403e-11
0
0
0
0
0
0
0
0
0
0
0
0
0
0
0
0
0
0
0
0
0
0
0
0
0
0
0
0
0
0
0
0
0
0
0
0
0
0
0
0
0
0
0
0
0
0
0
0
0
0
0
0
0
0
0
0
0
0
1.593683205e-08
1.603365544e-09
1.63462255e-10
2.10830721e-11
2.853367284e-12
0
0
0
0
0
0
0
0
0
0
0
0
0
0
0
0
0
0
0
0
0
0
0
0
0
0
0
0
0
0
0
0
0
0
0
0
0
0
0
0
0
0
0
0
0
0
0
0
0
0
0
0
0
0
0
5.084948961e-08
1.047289006e-08
1.378809803e-09
1.950787506e-10
4.195177829e-11
1.139294711e-11
2.672337814e-12
0
0
0
0
0
0
0
0
0
0
0
0
0
0
0
0
0
0
0
0
0
0
0
0
0
0
0
0
0
0
0
0
0
0
0
0
0
0
0
0
0
0
0
0
0
0
0
0
0
0
0
0
0
1.01223721e-07
4.6736409e-08
1.335968446e-08
1.719067015e-09
3.326288828e-10
1.007760347e-10
3.786060626e-11
1.412949207e-11
4.149768698e-12
3.036179276e-13
0
0
0
0
0
0
0
0
0
0
0
0
0
0
0
0
0
0
0
0
0
0
0
0
0
0
0
0
0
0
0
0
0
0
0
0
0
0
0
0
0
0
0
0
0
0
0
0
0
0
4.462768184e-07
1.585145091e-07
8.665222502e-08
1.592286768e-08
2.389118593e-09
5.906933127e-10
2.0797857e-10
8.318935815e-11
3.252517664e-11
1.09265134e-11
2.437546707e-12
0
0
0
0
0
0
0
0
0
0
0
0
0
0
0
0
0
0
0
0
0
0
0
0
0
0
0
0
0
0
0
0
0
0
0
0
0
0
0
0
0
0
0
0
0
0
0
0
0
9.882641582e-07
3.057036175e-07
2.090956375e-07
8.795259229e-08
1.329987865e-08
2.427909455e-09
7.070757241e-10
2.625092963e-10
1.033036696e-10
3.852231689e-11
1.213735924e-11
2.449833827e-12
0
0
0
0
0
0
0
0
0
0
0
0
0
0
0
0
0
0
0
0
0
0
0
0
0
0
0
0
0
0
0
0
0
0
0
0
0
0
0
0
0
0
0
0
0
0
0
0
9.440043929e-07
3.271766744e-07
2.779070045e-07
2.365492511e-07
6.844213187e-08
9.918345688e-09
2.154337982e-09
6.911698398e-10
2.588239846e-10
9.736967799e-11
3.357656198e-11
9.355576021e-12
1.396167707e-12
0
0
0
0
0
0
0
0
0
0
0
0
0
0
0
0
0
0
0
0
0
0
0
0
0
0
0
0
0
0
0
0
0
0
0
0
0
0
0
0
0
0
0
0
0
0
0
9.666952493e-07
3.714570977e-07
2.99088667e-07
3.681958109e-07
2.373003634e-07
4.490098359e-08
7.103834631e-09
1.819184909e-09
6.106945879e-10
2.210296459e-10
7.712097515e-11
2.374966797e-11
5.428268523e-12
3.276508956e-13
0
0
0
0
0
0
0
0
0
0
0
0
0
0
0
0
0
0
0
0
0
0
0
0
0
0
0
0
0
0
0
0
0
0
0
0
0
0
0
0
0
0
0
0
0
0
2.175902077e-06
4.30196157e-07
3.354729836e-07
4.516057463e-07
4.703299465e-07
1.796225232e-07
2.554895855e-08
4.826797328e-09
1.374456571e-09
4.599347206e-10
1.557371984e-10
4.887187943e-11
1.277491618e-11
2.010257051e-12
0
0
0
0
0
0
0
0
0
0
0
0
0
0
0
0
0
0
0
0
0
0
0
0
0
0
0
0
0
0
0
0
0
0
0
0
0
0
0
0
0
0
0
0
0
0
4.548304363e-06
5.620243428e-07
4.648365049e-07
5.50864999e-07
6.752473884e-07
4.655803282e-07
9.363533292e-08
1.298633609e-08
2.964672709e-09
8.862230345e-10
2.838930881e-10
8.757268833e-11
2.387165907e-11
4.779351035e-12
1.834572184e-13
0
0
0
0
0
0
0
0
0
0
0
0
0
0
0
0
0
0
0
0
0
0
0
0
0
0
0
0
0
0
0
0
0
0
0
0
0
0
0
0
0
0
0
0
0
7.677675594e-06
7.700060948e-07
4.390782743e-07
6.024709209e-07
8.512223123e-07
8.229978647e-07
2.7176173e-07
3.864797814e-08
6.824174001e-09
1.71211655e-09
4.95355763e-10
1.445302066e-10
3.905937856e-11
8.579292904e-12
8.849392456e-13
0
0
0
0
0
0
0
0
0
0
0
0
0
0
0
0
0
0
0
0
0
0
0
0
0
0
0
0
0
0
0
0
0
0
0
0
0
0
0
0
0
0
0
0
0
1.10092687e-05
1.162606169e-06
3.924068555e-07
9.255449535e-07
1.145257949e-06
1.236131927e-06
6.216541228e-07
9.885338061e-08
1.52322541e-08
3.137563239e-09
7.93731721e-10
2.134753916e-10
5.562816623e-11
1.26010652e-11
1.751880078e-12
0
0
0
0
0
0
0
0
0
0
0
0
0
0
0
0
0
0
0
0
0
0
0
0
0
0
0
0
0
0
0
0
0
0
0
0
0
0
0
0
0
0
0
0
0
1.844896283e-05
2.153842794e-06
4.320921707e-07
1.200550609e-06
1.532463411e-06
1.796506089e-06
1.16183627e-06
2.333118329e-07
3.264119337e-08
5.531433418e-09
1.167752298e-09
2.808432819e-10
6.94647726e-11
1.588579643e-11
2.542248705e-12
5.537459528e-15
0
0
0
0
0
0
0
0
0
0
0
0
0
0
0
0
0
0
0
0
0
0
0
0
0
0
0
0
0
0
0
0
0
0
0
0
0
0
0
0
0
0
0
0
2.928810278e-05
3.821998996e-06
5.639424466e-07
1.032286974e-06
1.821675596e-06
2.459831078e-06
1.886381312e-06
5.485519699e-07
6.982085184e-08
1.015457324e-08
1.725677864e-09
3.569263166e-10
8.232918929e-11
1.887128171e-11
3.338287616e-12
7.135936736e-14
0
0
0
0
0
0
0
0
0
0
0
0
0
0
0
0
0
0
0
0
0
0
0
0
0
0
0
0
0
0
0
0
0
0
0
0
0
0
0
0
0
0
0
0
4.207864561e-05
6.176075524e-06
8.755806754e-07
9.510256752e-07
2.326808344e-06
3.324961555e-06
2.716052002e-06
1.079102636e-06
1.537585052e-07
1.965209013e-08
2.584563461e-09
4.397854014e-10
9.330551053e-11
2.141563946e-11
4.092366345e-12
1.676055857e-13
0
0
0
0
0
0
0
0
0
0
0
0
0
0
0
0
0
0
0
0
0
0
0
0
0
0
0
0
0
0
0
0
0
0
0
0
0
0
0
0
0
0
0
0
5.546199694e-05
9.013976094e-06
1.395358769e-06
1.306855477e-06
3.480358761e-06
4.625369136e-06
3.584532192e-06
1.710613988e-06
3.231785008e-07
3.999295723e-08
4.036210067e-09
5.424461267e-10
1.051026899e-10
2.426534433e-11
4.94768734e-12
3.083634717e-13
0
0
0
0
0
0
0
0
0
0
0
0
0
0
0
0
0
0
0
0
0
0
0
0
0
0
0
0
0
0
0
0
0
0
0
0
0
0
0
0
0
0
0
0
6.265833389e-05
1.086198004e-05
2.461193734e-06
7.416591233e-06
6.705625534e-06
6.390537922e-06
4.410213814e-06
2.189914987e-06
6.003448338e-07
8.385531023e-08
7.313813329e-09
7.955255157e-10
1.385447382e-10
3.112427327e-11
6.598781883e-12
6.358744558e-13
0
0
0
0
0
0
0
0
0
0
0
0
0
0
0
0
0
0
0
0
0
0
0
0
0
0
0
0
0
0
0
0
0
0
0
0
0
0
0
0
0
0
0
0
5.210291858e-05
8.864420547e-06
2.517308188e-06
8.647906796e-06
1.042474028e-05
8.27831712e-06
5.070415769e-06
2.509787719e-06
9.188060773e-07
1.97770488e-07
2.157070613e-08
2.042835308e-09
2.723008943e-10
5.098757346e-11
1.038996196e-11
1.370024238e-12
0
0
0
0
0
0
0
0
0
0
0
0
0
0
0
0
0
0
0
0
0
0
0
0
0
0
0
0
0
0
0
0
0
0
0
0
0
0
0
0
0
0
0
0
2.761081825e-05
8.684637416e-06
2.575994724e-05
2.133260076e-05
1.541359939e-05
9.739168695e-06
5.556865807e-06
2.834052044e-06
1.244388172e-06
4.155401823e-07
8.243875789e-08
9.017747656e-09
8.835610114e-10
1.164840686e-10
1.989339038e-11
3.012974414e-12
4.962502859e-15
0
0
0
0
0
0
0
0
0
0
0
0
0
0
0
0
0
0
0
0
0
0
0
0
0
0
0
0
0
0
0
0
0
0
0
0
0
0
0
0
0
0
0
0.0001591805429
7.409550288e-05
4.331350256e-05
2.7957929e-05
1.741393271e-05
1.046911754e-05
5.988071251e-06
3.197950113e-06
1.561158729e-06
6.662476545e-07
2.172154171e-07
4.203735952e-08
4.501594983e-09
4.28109542e-10
5.253836584e-11
7.422764537e-12
4.356414724e-13
0
0
0
0
0
0
0
0
0
0
0
0
0
0
0
0
0
0
0
0
0
0
0
0
0
0
0
0
0
0
0
0
0
0
0
0
0
0
0
0
0
0
0
0.0001090150636
6.931836254e-05
4.471402196e-05
2.845537623e-05
1.778338909e-05
1.085068169e-05
6.390302273e-06
3.589319499e-06
1.893642937e-06
9.162158653e-07
3.875817272e-07
1.250594082e-07
2.372043009e-08
2.426152302e-09
2.161149022e-10
2.356940341e-11
2.314349317e-12
0
0
0
0
0
0
0
0
0
0
0
0
0
0
0
0
0
0
0
0
0
0
0
0
0
0
0
0
0
0
0
0
0
0
0
0
0
0
0
0
0
0
0
8.53874748e-05
5.981718598e-05
4.061227705e-05
2.689518561e-05
1.741889156e-05
1.10044586e-05
6.743835873e-06
3.978343089e-06
2.234577681e-06
1.175509998e-06
5.642392643e-07
2.354869305e-07
7.449318425e-08
1.358475563e-08
1.292948471e-09
1.052624073e-10
9.493032509e-12
3.199387095e-13
0
0
0
0
0
0
0
0
0
0
0
0
0
0
0
0
0
0
0
0
0
0
0
0
0
0
0
0
0
0
0
0
0
0
0
0
0
0
0
0
0
0
6.860084325e-05
5.048914746e-05
3.586956373e-05
2.47755057e-05
1.669487452e-05
1.096198591e-05
6.99217326e-06
4.309576247e-06
2.546032754e-06
1.424864632e-06
7.421216712e-07
3.498024042e-07
1.420145809e-07
4.315580353e-08
7.355476154e-09
6.312379205e-10
4.504157697e-11
2.953685858e-12
0
0
0
0
0
0
0
0
0
0
0
0
0
0
0
0
0
0
0
0
0
0
0
0
0
0
0
0
0
0
0
0
0
0
0
0
0
0
0
0
0
0
5.571416358e-05
4.255584922e-05
3.137280895e-05
2.246758785e-05
1.568059155e-05
1.066530622e-05
7.049134339e-06
4.509279953e-06
2.774836593e-06
1.628240119e-06
8.995520404e-07
4.590239105e-07
2.098409881e-07
8.151975302e-08
2.326792109e-08
3.602506132e-09
2.689254836e-10
1.625148546e-11
3.458233759e-13
0
0
0
0
0
0
0
0
0
0
0
0
0
0
0
0
0
0
0
0
0
0
0
0
0
0
0
0
0
0
0
0
0
0
0
0
0
0
0
0
0
4.500447696e-05
3.519217681e-05
2.669071037e-05
1.983016456e-05
1.429458358e-05
1.002154244e-05
6.832373401e-06
4.511748662e-06
2.872036643e-06
1.750524151e-06
1.011760259e-06
5.467371771e-07
2.703810426e-07
1.182676511e-07
4.315541823e-08
1.127927482e-08
1.54368761e-09
1.007472586e-10
4.541665213e-12
0
0
0
0
0
0
0
0
0
0
0
0
0
0
0
0
0
0
0
0
0
0
0
0
0
0
0
0
0
0
0
0
0
0
0
0
0
0
0
0
0
3.605091268e-05
2.896320103e-05
2.266426449e-05
1.727637326e-05
1.28170303e-05
9.236219211e-06
6.456084654e-06
4.374111824e-06
2.862383608e-06
1.798935288e-06
1.077316062e-06
6.079489522e-07
3.181016019e-07
1.506187659e-07
6.208042119e-08
2.085688272e-08
4.849261471e-09
5.633334568e-10
3.033641307e-11
4.849856841e-13
0
0
0
0
0
0
0
0
0
0
0
0
0
0
0
0
0
0
0
0
0
0
0
0
0
0
0
0
0
0
0
0
0
0
0
0
0
0
0
0
2.899587023e-05
2.373110532e-05
1.892713611e-05
1.471879272e-05
1.115733348e-05
8.233492954e-06
5.897660655e-06
4.089977523e-06
2.737396142e-06
1.763908602e-06
1.086710819e-06
6.341701863e-07
3.460380725e-07
1.733049536e-07
7.747785834e-08
2.954373198e-08
8.892265351e-09
1.761605473e-09
1.611878834e-10
5.910502643e-12
0
0
0
0
0
0
0
0
0
0
0
0
0
0
0
0
0
0
0
0
0
0
0
0
0
0
0
0
0
0
0
0
0
0
0
0
0
0
0
0
2.312121503e-05
1.919446863e-05
1.554463803e-05
1.228475223e-05
9.470846903e-06
7.115268377e-06
5.199378587e-06
3.683092436e-06
2.51996717e-06
1.657416719e-06
1.044225994e-06
6.253034149e-07
3.520662411e-07
1.836207862e-07
8.684386966e-08
3.606079352e-08
1.242981034e-08
3.219365475e-09
5.081142382e-10
3.265534548e-11
2.2547232e-13
0
0
0
0
0
0
0
0
0
0
0
0
0
0
0
0
0
0
0
0
0
0
0
0
0
0
0
0
0
0
0
0
0
0
0
0
0
0
0
1.823796254e-05
1.531335557e-05
1.255436124e-05
1.005103806e-05
7.854894326e-06
5.98608346e-06
4.440898734e-06
3.198803145e-06
2.228234557e-06
1.494343203e-06
9.592478457e-07
5.856558222e-07
3.374616793e-07
1.812600179e-07
8.922763764e-08
3.927655131e-08
1.486022615e-08
4.518215768e-09
1.021778696e-09
1.292975294e-10
5.338033887e-12
0
0
0
0
0
0
0
0
0
0
0
0
0
0
0
0
0
0
0
0
0
0
0
0
0
0
0
0
0
0
0
0
0
0
0
0
0
0
0
1.418345404e-05
1.201952556e-05
9.951523281e-06
8.049866112e-06
6.358708354e-06
4.899831011e-06
3.677145406e-06
2.681221804e-06
1.893101025e-06
1.288103904e-06
8.401320543e-07
5.216485101e-07
3.056493367e-07
1.677128473e-07
8.498159697e-08
3.899761535e-08
1.573567882e-08
5.268618162e-09
1.321297702e-09
2.334582425e-10
1.957739642e-11
5.168339764e-14
0
0
0
0
0
0
0
0
0
0
0
0
0
0
0
0
0
0
0
0
0
0
0
0
0
0
0
0
0
0
0
0
0
0
0
0
0
0
1.082754308e-05
9.244977492e-06
7.714548755e-06
6.290623879e-06
5.009625014e-06
3.892038317e-06
2.94512151e-06
2.165722208e-06
1.543024948e-06
1.060782841e-06
6.997393446e-07
4.401251785e-07
2.618695326e-07
1.458402932e-07
7.542875103e-08
3.565869537e-08
1.505448125e-08
5.453382419e-09
1.519972399e-09
2.417577611e-10
2.613982467e-11
5.395067097e-13
0
0
0
0
0
0
0
0
0
0
0
0
0
0
0
0
0
0
0
0
0
0
0
0
0
0
0
0
0
0
0
0
0
0
0
0
0
0
8.072264429e-06
6.934048942e-06
5.821239881e-06
4.775203851e-06
3.825060052e-06
2.988642978e-06
2.274032458e-06
1.6813459e-06
1.204532157e-06
8.33119427e-07
5.536829671e-07
3.513757227e-07
2.114062809e-07
1.194772647e-07
6.272170422e-08
3.030334602e-08
1.321989325e-08
5.03980894e-09
1.528217688e-09
2.910092204e-10
4.159495735e-11
2.53784285e-12
0
0
0
0
0
0
0
0
0
0
0
0
0
0
0
0
0
0
0
0
0
0
0
0
0
0
0
0
0
0
0
0
0
0
0
0
0
0
5.84576925e-06
5.045080217e-06
4.254441281e-06
3.504680994e-06
2.818315725e-06
2.209945303e-06
1.687078867e-06
1.251232768e-06
8.99122774e-07
6.238844521e-07
4.162585831e-07
2.656190275e-07
1.610128638e-07
9.198603693e-08
4.900165338e-08
2.407705039e-08
1.077501028e-08
4.277546885e-09
1.421629037e-09
3.036306537e-10
5.284297235e-12
4.493672531e-14
0
0
0
0
0
0
0
0
0
0
0
0
0
0
0
0
0
0
0
0
0
0
0
0
0
0
0
0
0
0
0
0
0
0
0
0
0
0
4.091241745e-06
3.543538669e-06
2.997836657e-06
2.476492186e-06
1.996278701e-06
1.568489873e-06
1.199362753e-06
8.907409637e-07
6.408842427e-07
4.453092123e-07
2.976552739e-07
1.904907621e-07
1.160178216e-07
6.675135593e-08
3.59643141e-08
1.79261297e-08
8.17724089e-09
3.338499333e-09
1.153486627e-09
2.585193798e-10
3.791116589e-12
0
0
0
0
0
0
0
0
0
0
0
0
0
0
0
0
0
0
0
0
0
0
0
0
0
0
0
0
0
0
0
0
0
0
0
0
0
0
0
2.755171812e-06
2.39296005e-06
2.029090475e-06
1.679238633e-06
1.355399615e-06
1.065858486e-06
8.153920983e-07
6.05667794e-07
4.35775736e-07
3.028118822e-07
2.024934556e-07
1.297483642e-07
7.924802467e-08
4.583888318e-08
2.490735354e-08
1.257939703e-08
5.82831578e-09
2.438435719e-09
8.807012781e-10
2.424207964e-10
6.775382555e-12
0
0
0
0
0
0
0
0
0
0
0
0
0
0
0
0
0
0
0
0
0
0
0
0
0
0
0
0
0
0
0
0
0
0
0
0
0
0
0
1.77904004e-06
1.548612506e-06
1.315329646e-06
1.089763539e-06
8.801247375e-07
6.921846039e-07
5.29362913e-07
3.929635398e-07
2.82516434e-07
1.961725436e-07
1.311312666e-07
8.404926816e-08
5.141135657e-08
2.983736429e-08
1.631265536e-08
8.325265602e-09
3.91556107e-09
1.666483628e-09
6.156316144e-10
1.732058145e-10
4.211444537e-12
0
0
0
0
0
0
0
0
0
0
0
0
0
0
0
0
0
0
0
0
0
0
0
0
0
0
0
0
0
0
0
0
0
0
0
0
0
0
0
1.098335657e-06
9.578930921e-07
8.146436618e-07
6.754122853e-07
5.455637192e-07
4.289153249e-07
3.277697179e-07
2.430513031e-07
1.745228624e-07
1.210388513e-07
8.083466918e-08
5.179641748e-08
3.170738328e-08
1.844823182e-08
1.013586148e-08
5.214664494e-09
2.483998874e-09
1.072029206e-09
4.039414787e-10
1.156199087e-10
1.553183307e-11
0
0
0
0
0
0
0
0
0
0
0
0
0
0
0
0
0
0
0
0
0
0
0
0
0
0
0
0
0
0
0
0
0
0
0
0
0
0
0
6.468371581e-07
5.650932973e-07
4.811012744e-07
3.990647365e-07
3.223187318e-07
2.532584077e-07
1.933461725e-07
1.431887265e-07
1.02670027e-07
7.110664405e-08
4.743445909e-08
3.037724537e-08
1.860199963e-08
1.084156076e-08
5.978137766e-09
3.095575384e-09
1.488197008e-09
6.526375354e-10
2.471938718e-10
6.929283279e-11
6.383164687e-12
0
0
0
0
0
0
0
0
0
0
0
0
0
0
0
0
0
0
0
0
0
0
0
0
0
0
0
0
0
0
0
0
0
0
0
0
0
0
0
3.626920622e-07
3.173760572e-07
2.704696258e-07
2.244375853e-07
1.812485411e-07
1.423260499e-07
1.085475401e-07
8.028554599e-08
5.748413869e-08
3.975580686e-08
2.648955065e-08
1.695237159e-08
1.03822083e-08
6.058645907e-09
3.350826208e-09
1.743881085e-09
8.43868822e-10
3.742288423e-10
1.418351255e-10
4.027348087e-11
3.022482949e-12
0
0
0
0
0
0
0
0
0
0
0
0
0
0
0
0
0
0
0
0
0
0
0
0
0
0
0
0
0
0
0
0
0
0
0
0
0
0
0
1.933284469e-07
1.69452506e-07
1.445535114e-07
1.200026396e-07
9.690159944e-08
7.60515051e-08
5.794995894e-08
4.281215224e-08
3.061361103e-08
2.114516989e-08
1.407424732e-08
9.001406327e-09
5.513312161e-09
3.220874233e-09
1.785908396e-09
9.332111107e-10
4.541817428e-10
2.028573168e-10
7.582829472e-11
1.966479205e-11
5.551732765e-13
0
0
0
0
0
0
0
0
0
0
0
0
0
0
0
0
0
0
0
0
0
0
0
0
0
0
0
0
0
0
0
0
0
0
0
0
0
0
0
9.7847961e-08
8.591269912e-08
7.336976069e-08
6.094203718e-08
4.921315425e-08
3.861005106e-08
2.939968128e-08
2.169954821e-08
1.550030421e-08
1.069511517e-08
7.112820384e-09
4.547162694e-09
2.785709467e-09
1.629172215e-09
9.054429503e-10
4.74727598e-10
2.318611858e-10
1.02137736e-10
3.963863598e-11
7.64364286e-12
0
0
0
0
0
0
0
0
0
0
0
0
0
0
0
0
0
0
0
0
0
0
0
0
0
0
0
0
0
0
0
0
0
0
0
0
0
0
0
0
4.698505494e-08
4.133147498e-08
3.534194755e-08
2.937723311e-08
2.372985711e-08
1.861515301e-08
1.416847102e-08
1.045117939e-08
7.460094649e-09
5.143855306e-09
3.419425235e-09
2.185868081e-09
1.339857727e-09
7.845647677e-10
4.36977076e-10
2.29489337e-10
1.117877654e-10
4.785400399e-11
1.793176492e-11
7.21731492e-13
0
0
0
0
0
0
0
0
0
0
0
0
0
0
0
0
0
0
0
0
0
0
0
0
0
0
0
0
0
0
0
0
0
0
0
0
0
0
0
0
2.139733439e-08
1.886159916e-08
1.615229322e-08
1.343944342e-08
1.086189119e-08
8.52242397e-09
6.485826086e-09
4.783536782e-09
3.413783317e-09
2.353504874e-09
1.564895626e-09
1.00106847e-09
6.145469269e-10
3.607195576e-10
2.016614875e-10
1.063202712e-10
5.191915871e-11
2.197643212e-11
8.483841779e-12
2.040243002e-12
0
0
0
0
0
0
0
0
0
0
0
0
0
0
0
0
0
0
0
0
0
0
0
0
0
0
0
0
0
0
0
0
0
0
0
0
0
0
0
0
9.243806963e-09
8.167264908e-09
7.006517049e-09
5.837473065e-09
4.722556593e-09
3.708062183e-09