/*--------------------------------*- C++ -*----------------------------------*\
  =========                 |
  \\      /  F ield         | OpenFOAM: The Open Source CFD Toolbox
   \\    /   O peration     | Website:  https://openfoam.org
    \\  /    A nd           | Version:  10
     \\/     M anipulation  |
\*---------------------------------------------------------------------------*/
FoamFile
{
    format      ascii;
    class       volScalarField;
    location    "0.02499901733";
    object      CH2OH_0;
}
// * * * * * * * * * * * * * * * * * * * * * * * * * * * * * * * * * * * * * //

dimensions      [0 0 0 0 0 0 0];

internalField   nonuniform List<scalar> 
5170
(
0
0
0
0
0
0
0
0
0
0
0
0
0
0
0
0
0
0
0
0
0
0
0
0
0
0
0
0
0
0
0
0
0
0
0
0
0
0
0
0
0
0
0
0
0
0
0
0
0
0
0
0
0
0
0
0
0
0
0
0
0
0
0
0
0
0
0
0
0
0
0
0
0
0
0
0
0
0
0
0
0
0
0
0
0
0
0
0
0
0
0
0
0
0
0
0
0
0
0
0
0
1.328982398e-16
1.09883786e-16
2.346021679e-16
0
9.353322666e-16
5.053046692e-16
1.402913571e-16
0
0
1.406617601e-16
2.731597006e-16
4.402845047e-17
9.517783386e-17
1.588586921e-17
5.632343344e-17
7.735860039e-17
3.048237936e-17
3.927983523e-17
2.995157481e-17
0
0
0
0
0
0
0
0
1.890074831e-14
0
8.112892466e-14
0
0
1.856258812e-12
3.483574264e-12
1.297630418e-10
3.688517358e-12
1.626709814e-13
0
7.171852725e-10
7.826534538e-10
5.060978333e-11
6.640608791e-12
4.631784513e-10
1.525883403e-11
1.156340533e-10
5.922364776e-10
5.282145867e-10
2.305359411e-10
5.617564259e-12
1.116087362e-11
1.255250796e-10
1.251769478e-10
0
1.016166788e-11
8.768182796e-12
0
0
0
2.995168206e-12
3.026268046e-12
2.841418859e-12
0
3.685596197e-12
2.439089634e-11
1.819018231e-11
3.608594132e-12
1.261539139e-12
9.819268157e-12
2.573422455e-11
2.776650157e-11
1.102881582e-11
8.846523798e-12
1.979320798e-11
2.386727257e-11
2.607955181e-11
2.114749643e-11
1.964733262e-11
2.445201306e-11
2.2382795e-11
2.036200666e-11
2.373739128e-11
2.350698587e-11
2.309261466e-11
2.088781384e-11
1.686697699e-11
2.079092091e-11
2.121793812e-11
1.986468303e-11
1.916138716e-11
2.510692484e-11
2.216055947e-11
1.902347779e-11
1.770457836e-11
1.719681131e-11
9.528559835e-10
6.355795763e-10
8.767953177e-11
3.111219665e-11
1.622209704e-12
0
0
0
1.929260556e-13
1.787872742e-11
0
0
3.507569838e-13
5.368358358e-12
1.636816336e-10
0
0
4.444614892e-13
7.525938285e-12
1.460095236e-10
0
3.306318355e-14
8.952679147e-13
1.507435919e-11
2.608445565e-10
0
1.371880096e-13
1.730376863e-12
2.911495556e-11
4.149569966e-10
2.774931701e-15
3.095468291e-13
2.382249567e-12
4.059591269e-11
4.607016439e-10
3.509113409e-14
5.156153888e-13
2.713717929e-12
3.561573177e-11
3.042831299e-10
7.109314226e-14
5.040316834e-13
2.744398276e-12
2.8333908e-11
1.957186985e-10
3.515342567e-14
8.742313008e-14
3.602213271e-12
3.518829014e-11
2.548748551e-10
5.707055812e-14
3.897103014e-13
5.438725401e-12
4.823440327e-11
3.258899345e-10
2.069236018e-13
1.0479852e-12
7.828185837e-12
6.050243508e-11
3.711951983e-10
1.883985554e-13
1.179532445e-12
9.132783514e-12
5.964343066e-11
3.172963756e-10
0
1.379545105e-12
9.363353005e-12
5.345452766e-11
2.58742304e-10
3.335681192e-13
1.915519212e-12
1.160642145e-11
6.298479308e-11
3.021799647e-10
8.375712951e-13
3.51217844e-12
1.442960978e-11
7.080157428e-11
3.133647654e-10
4.852539483e-13
4.12647127e-12
1.916776898e-11
8.817444953e-11
3.002370852e-10
1.97353335e-12
6.045890404e-12
2.467673445e-11
1.001466012e-10
3.749020301e-10
3.089021572e-12
7.316186367e-12
2.467629602e-11
1.484191344e-10
5.570245101e-10
7.070612972e-12
1.674547885e-11
5.834132993e-11
2.146816162e-10
7.254374982e-10
1.173936434e-11
2.362149051e-11
6.754182135e-11
2.027462764e-10
5.79558892e-10
1.726900032e-11
2.709884625e-11
5.699850105e-11
1.30114435e-10
2.952994069e-10
1.916600182e-11
2.411980481e-11
3.716327353e-11
6.33251955e-11
1.117691217e-10
1.314958369e-11
1.486602178e-11
1.844882075e-11
2.472770271e-11
3.455841147e-11
5.70393667e-12
6.003604068e-12
6.606640849e-12
7.520837064e-12
8.70879726e-12
1.760276935e-12
1.808327334e-12
1.881783402e-12
1.928018774e-12
2.020213369e-12
4.878807648e-13
4.893223034e-13
4.873680691e-13
4.786470268e-13
4.662493163e-13
1.543600184e-13
1.533491564e-13
1.501435658e-13
1.446922962e-13
1.373998407e-13
5.498250005e-14
5.439348209e-14
5.292309943e-14
5.068803534e-14
4.765613597e-14
2.141147059e-14
2.117792161e-14
2.062718027e-14
1.982096739e-14
1.881224264e-14
8.727082144e-15
8.623672012e-15
8.416385045e-15
8.108712876e-15
7.714262464e-15
3.819327916e-15
3.847556105e-15
3.84138038e-15
3.733538461e-15
3.579971225e-15
2.021595528e-15
2.008823106e-15
1.977091194e-15
1.928175374e-15
1.865676468e-15
1.242876391e-15
1.2378906e-15
1.226692446e-15
1.210648032e-15
1.192229353e-15
9.972295756e-16
9.97633782e-16
9.985750414e-16
1.000181032e-15
1.002548314e-15
1.044394466e-15
1.049855029e-15
1.062118312e-15
1.080845754e-15
1.106272613e-15
1.298329051e-15
1.307706898e-15
1.328626945e-15
1.360082623e-15
1.400752221e-15
1.583782209e-15
1.599435965e-15
1.634384794e-15
1.687714207e-15
1.759042583e-15
1.762058662e-15
1.783485097e-15
1.830874292e-15
1.902961868e-15
1.999632234e-15
1.673362728e-15
1.698272256e-15
1.753095835e-15
1.836442623e-15
1.947441453e-15
1.246318709e-15
1.268859112e-15
1.314228698e-15
1.380788087e-15
1.471065778e-15
6.671001243e-16
6.847660005e-16
7.171477916e-16
7.650541868e-16
8.29153966e-16
1.712507706e-16
1.813493045e-16
2.031027064e-16
2.360824966e-16
2.80889317e-16
5.952497886e-17
6.230577615e-17
6.818264522e-17
7.673094005e-17
8.741037163e-17
0
0
0
0
0
0
0
0
0
0
0
0
0
0
0
0
0
0
0
0
1.557798791e-18
1.201694119e-18
6.17576624e-19
7.085970745e-20
0
7.87556929e-20
0
0
0
3.128708675e-20
0
0
0
0
0
0
0
0
0
0
9.615833596e-17
9.444298783e-17
9.124091188e-17
8.713073649e-17
8.184217121e-17
2.674365096e-16
2.624691976e-16
2.521741212e-16
2.374639774e-16
2.189086412e-16
3.986749941e-16
3.913163137e-16
3.758197301e-16
3.532565711e-16
3.241689023e-16
4.709533128e-16
4.630177621e-16
4.461563654e-16
4.213866511e-16
3.892948605e-16
5.669531134e-16
5.574523686e-16
5.374099847e-16
5.084556655e-16
4.715242145e-16
7.009502804e-16
6.89068468e-16
6.638583883e-16
6.271041631e-16
5.799008387e-16
8.785957105e-16
8.638650717e-16
8.326351759e-16
7.872165254e-16
7.291181453e-16
1.200777726e-15
1.181489346e-15
1.140316006e-15
1.079532969e-15
9.994757107e-16
1.696995167e-15
1.673675834e-15
1.624219309e-15
1.551898217e-15
1.45871755e-15
2.423382192e-15
2.399476721e-15
2.348740643e-15
2.274426407e-15
2.178660971e-15
2.949204895e-15
2.928661393e-15
2.885199056e-15
2.823247299e-15
2.748831639e-15
3.277980606e-15
3.261911121e-15
3.230789267e-15
3.190842754e-15
3.149514356e-15
3.384501048e-15
3.357815565e-15
3.316777089e-15
3.26443221e-15
3.173966462e-15
4.226257273e-15
4.183651555e-15
4.094578178e-15
3.964842e-15
3.796196651e-15
5.905653526e-15
5.848135358e-15
5.728462932e-15
5.566706443e-15
5.400738044e-15
7.93909073e-15
7.864900737e-15
7.705387413e-15
7.469700865e-15
7.159503664e-15
8.871427991e-15
8.787847861e-15
8.605619283e-15
8.33309761e-15
7.975864022e-15
1.02284352e-14
1.014136229e-14
9.950714646e-15
9.663941026e-15
9.28590993e-15
1.324142867e-14
1.319057583e-14
1.308394929e-14
1.292989383e-14
1.273918068e-14
1.260047471e-10
1.808800719e-09
1.057398754e-09
1.935625337e-09
2.699991258e-09
2.519583017e-09
1.337791504e-09
7.293840999e-10
1.082342772e-09
1.294466237e-09
1.38211823e-09
1.048699034e-09
8.110529363e-10
9.628636352e-10
9.320785994e-10
8.299431036e-10
1.005604335e-09
1.47191022e-09
1.74116158e-09
1.206025376e-09
5.257321045e-10
1.689906182e-10
4.464661059e-11
1.00478428e-11
2.104987736e-12
4.607272542e-13
1.32645494e-13
4.558350155e-14
1.814550009e-14
7.432530645e-15
3.47014634e-15
1.822674206e-15
1.177875306e-15
1.004145922e-15
1.124917316e-15
1.429898235e-15
1.815085829e-15
2.077877091e-15
2.033935756e-15
1.545905939e-15
8.830685466e-16
3.201902653e-16
9.612649243e-17
0
0
0
0
0
0
0
0
7.620156357e-17
2.032754904e-16
3.007893877e-16
3.628307209e-16
4.412456513e-16
5.416411277e-16
6.818915575e-16
9.307161082e-16
1.381819399e-15
2.09901402e-15
2.693232122e-15
3.126496042e-15
3.083133475e-15
3.654404923e-15
5.226548145e-15
6.901357888e-15
7.685845843e-15
8.981923412e-15
1.258886976e-14
4.322481029e-10
5.100582503e-10
5.681636874e-11
2.794401963e-10
1.425640364e-11
1.005122706e-08
1.65619752e-07
9.509652988e-09
3.03913471e-10
8.404709473e-11
4.331010769e-09
3.70925307e-08
8.643573452e-09
7.214089348e-10
3.821997623e-10
9.089331172e-09
1.148502661e-07
1.292105183e-06
9.724897672e-08
5.605641281e-09
1.180578919e-08
1.294704838e-07
1.22180477e-06
1.26403699e-07
9.345166348e-09
9.527967555e-09
7.323069825e-08
5.248247275e-07
7.335249358e-08
7.121748478e-09
4.569003679e-09
3.630687067e-08
2.239002037e-07
3.915624423e-08
5.027597122e-09
2.263897197e-09
2.281951236e-08
1.43453241e-07
4.16256493e-07
5.247690769e-08
3.705104888e-09
3.151797702e-08
2.270892003e-07
1.372968214e-06
1.959733425e-07
4.172372122e-09
3.086641194e-08
1.990934298e-07
1.102505326e-06
1.863740684e-07
4.303152144e-09
2.483542534e-08
1.46406267e-07
7.441391211e-07
1.417048834e-07
2.988822071e-09
1.852487298e-08
1.01937912e-07
4.810872697e-07
1.617102776e-07
2.271746887e-09
1.77137365e-08
8.926321789e-08
4.32462541e-07
9.841395977e-07
2.729027648e-09
1.687612461e-08
8.122183116e-08
3.835437769e-07
1.141572847e-06
2.511011492e-09
1.395870014e-08
7.092787452e-08
3.194581292e-07
9.890376461e-07
2.149566945e-09
1.103202492e-08
6.125162983e-08
2.634034176e-07
8.194489702e-07
2.504913713e-09
1.252449209e-08
6.024352673e-08
2.520545603e-07
7.865257315e-07
3.635942815e-09
1.811641743e-08
8.284918596e-08
3.45475254e-07
1.07035674e-06
3.899988721e-09
1.601247545e-08
5.9069353e-08
1.931922791e-07
1.858833071e-07
2.435708045e-09
7.519300647e-09
1.930972268e-08
4.019159056e-08
4.998467319e-08
9.691302864e-10
2.372935137e-09
4.677901227e-09
7.150203577e-09
7.37094892e-09
2.786234472e-10
5.522369338e-10
8.919814322e-10
1.109855294e-09
9.731689843e-10
6.425456709e-11
1.021378296e-10
1.373545505e-10
1.479252749e-10
1.184724371e-10
1.261130252e-11
1.6320651e-11
1.867215747e-11
1.800113877e-11
1.365849345e-11
2.359809675e-12
2.580788146e-12
2.56122472e-12
2.237217819e-12
1.633172424e-12
4.710906953e-13
4.502545441e-13
3.963473159e-13
3.193800098e-13
2.303362989e-13
1.300915714e-13
1.176156227e-13
9.917359103e-14
7.789022942e-14
5.811853686e-14
4.402853166e-14
3.941981763e-14
3.296097224e-14
2.511674122e-14
1.997380807e-14
1.759109946e-14
1.632151372e-14
1.356873268e-14
1.067335529e-14
8.004846139e-15
7.149311001e-15
6.358188725e-15
5.743522544e-15
4.816739332e-15
3.86813831e-15
3.361636409e-15
3.097047425e-15
2.803418133e-15
2.439326712e-15
2.053349956e-15
1.778290154e-15
1.661442932e-15
1.533929375e-15
1.423423881e-15
1.294034214e-15
1.16178239e-15
1.127524909e-15
1.092743562e-15
1.063255318e-15
1.044494431e-15
1.003774252e-15
1.019136342e-15
1.049199868e-15
1.092883915e-15
1.148938241e-15
1.144968526e-15
1.202726345e-15
1.28701214e-15
1.392659848e-15
1.542052105e-15
1.460859056e-15
1.563974314e-15
1.716177919e-15
1.906927585e-15
2.12970816e-15
1.887513172e-15
2.054507852e-15
2.273736748e-15
2.536373834e-15
2.880956435e-15
2.188549963e-15
2.411886761e-15
2.730725627e-15
3.041359474e-15
3.344388674e-15
2.162207375e-15
2.400845982e-15
2.672053482e-15
2.940729931e-15
3.196888262e-15
1.664180742e-15
1.856866472e-15
2.057352429e-15
2.257257191e-15
2.444936153e-15
9.727770017e-16
1.122592071e-15
1.283498651e-15
1.465175831e-15
1.611788962e-15
3.876267381e-16
5.172523885e-16
6.119342414e-16
6.798032246e-16
7.331501445e-16
1.128839559e-16
1.386640237e-16
1.534405362e-16
1.622837599e-16
1.658651477e-16
0
0
0
0
0
0
0
0
0
0
0
0
0
0
0
0
0
0
0
0
0
5.045940767e-21
0
0
0
0
0
0
0
0
0
0
0
0
0
0
0
0
0
0
6.32500097e-17
4.402089094e-17
2.638654428e-17
1.081990542e-17
0
1.745736167e-16
1.31378653e-16
9.104719168e-17
5.56093438e-17
2.630696567e-17
2.601258308e-16
1.965261751e-16
1.39001966e-16
9.000855271e-17
5.055211781e-17
3.188877769e-16
2.528243883e-16
1.883028447e-16
1.293176076e-16
7.719684736e-17
3.920273704e-16
3.124058144e-16
2.343269527e-16
1.621975851e-16
1.005910897e-16
4.79886063e-16
3.815784241e-16
2.871286086e-16
2.008635529e-16
1.265123063e-16
6.056431022e-16
4.824808788e-16
3.620822967e-16
2.475155156e-16
1.343460395e-16
8.191165578e-16
6.447558293e-16
4.796259005e-16
3.259267849e-16
1.899249843e-16
1.250803386e-15
1.039432065e-15
8.295524504e-16
6.327040056e-16
4.615930553e-16
1.960864873e-15
1.737373334e-15
1.515206196e-15
1.322439069e-15
1.158869824e-15
2.592545771e-15
2.47283465e-15
2.417577918e-15
2.515856085e-15
2.991589875e-15
3.088663887e-15
3.244138717e-15
2.737703145e-15
2.443606831e-15
2.26458007e-15
2.916861338e-15
2.645026628e-15
2.359531501e-15
2.095178071e-15
1.874817347e-15
3.409689801e-15
3.017320285e-15
2.630344703e-15
2.270986841e-15
2.020750619e-15
4.977429705e-15
4.46426609e-15
3.935883688e-15
3.38518777e-15
2.847095824e-15
6.526504806e-15
5.878387383e-15
5.20125893e-15
4.389795253e-15
3.522015282e-15
7.26432882e-15
6.486649993e-15
5.61534711e-15
4.700192625e-15
3.853489931e-15
8.542311649e-15
7.782343847e-15
6.943696895e-15
6.157370028e-15
5.562009881e-15
1.229499059e-14
1.189022008e-14
1.152034837e-14
1.111536787e-14
1.071746154e-14
9.180993965e-14
1.641942687e-14
0
0
0
0
0
0
0
0
0
0
0
0
0
0
0
0
0
0
0
0
0
0
0
0
0
0
0
0
0
0
0
0
0
0
0
0
0
0
0
0
0
0
0
0
0
0
0
0
0
0
0
0
0
0
0
0
0
0
1.067822361e-12
2.558476347e-13
1.187817707e-16
0
0
0
0
0
0
0
0
0
0
0
0
0
0
0
0
0
0
0
0
0
0
0
0
0
0
0
0
0
0
0
0
0
0
0
0
0
0
0
0
0
0
0
0
0
0
0
0
0
0
0
0
0
0
0
0
0
4.507024247e-12
0
0
0
0
0
0
0
0
0
0
0
0
0
0
0
0
0
0
0
0
0
0
0
0
0
0
0
0
0
0
0
0
0
0
0
0
0
0
0
0
0
0
0
0
0
0
0
0
0
0
0
0
0
0
0
0
0
0
0
9.922837998e-11
7.758487927e-13
6.40451858e-14
0
0
0
0
0
0
0
0
0
0
0
0
0
0
0
0
0
0
0
0
0
0
0
0
0
0
0
0
0
0
0
0
0
0
0
0
0
0
0
0
0
0
0
0
0
0
0
0
0
0
0
0
0
0
0
0
0
4.241836614e-10
6.141444116e-12
2.104748279e-13
1.11353743e-14
0
0
0
0
0
0
0
0
0
0
0
0
0
0
0
0
0
0
0
0
0
0
0
0
0
0
0
0
0
0
0
0
0
0
0
0
0
0
0
0
0
0
0
0
0
0
0
0
0
0
0
0
0
0
0
0
1.122078778e-09
4.524815289e-11
8.430149136e-13
1.580941659e-13
2.040090913e-16
0
0
0
0
0
0
0
0
0
0
0
0
0
0
0
0
0
0
0
0
0
0
0
0
0
0
0
0
0
0
0
0
0
0
0
0
0
0
0
0
0
0
0
0
0
0
0
0
0
0
0
0
0
0
0
1.259457532e-09
1.811231508e-10
6.92433528e-12
1.585159332e-13
2.652917329e-14
0
0
0
0
0
0
0
0
0
0
0
0
0
0
0
0
0
0
0
0
0
0
0
0
0
0
0
0
0
0
0
0
0
0
0
0
0
0
0
0
0
0
0
0
0
0
0
0
0
0
0
0
0
0
0
4.119732504e-09
6.537906635e-10
4.483188101e-11
1.419966509e-12
1.957096618e-14
1.122579822e-14
0
0
0
0
0
0
0
0
0
0
0
0
0
0
0
0
0
0
0
0
0
0
0
0
0
0
0
0
0
0
0
0
0
0
0
0
0
0
0
0
0
0
0
0
0
0
0
0
0
0
0
0
0
0
1.741405255e-08
1.800621897e-09
2.214941588e-10
1.150336276e-11
3.645684417e-13
1.248011283e-13
5.413265699e-16
0
0
0
0
0
0
0
0
0
0
0
0
0
0
0
0
0
0
0
0
0
0
0
0
0
0
0
0
0
0
0
0
0
0
0
0
0
0
0
0
0
0
0
0
0
0
0
0
0
0
0
0
0
2.016931035e-08
2.163417392e-09
7.045888346e-10
5.444051409e-11
2.538521938e-12
7.773672901e-14
2.375207519e-14
0
0
0
0
0
0
0
0
0
0
0
0
0
0
0
0
0
0
0
0
0
0
0
0
0
0
0
0
0
0
0
0
0
0
0
0
0
0
0
0
0
0
0
0
0
0
0
0
0
0
0
0
0
1.793408069e-08
1.760688563e-09
1.367109299e-09
2.1401627e-10
1.283968316e-11
4.680592875e-13
1.295895815e-13
2.526946843e-15
0
0
0
0
0
0
0
0
0
0
0
0
0
0
0
0
0
0
0
0
0
0
0
0
0
0
0
0
0
0
0
0
0
0
0
0
0
0
0
0
0
0
0
0
0
0
0
0
0
0
0
0
2.285760809e-08
2.56263004e-09
1.543377518e-09
8.058758784e-10
5.559258212e-11
2.241603877e-12
5.862300374e-14
1.808556859e-14
0
0
0
0
0
0
0
0
0
0
0
0
0
0
0
0
0
0
0
0
0
0
0
0
0
0
0
0
0
0
0
0
0
0
0
0
0
0
0
0
0
0
0
0
0
0
0
0
0
0
0
0
1.394369086e-07
1.574458075e-08
2.32561767e-09
2.544130139e-09
2.001034218e-10
8.976822144e-12
2.544342099e-13
4.776775918e-14
2.707567247e-16
0
0
0
0
0
0
0
0
0
0
0
0
0
0
0
0
0
0
0
0
0
0
0
0
0
0
0
0
0
0
0
0
0
0
0
0
0
0
0
0
0
0
0
0
0
0
0
0
0
0
0
1.8602883e-07
2.432757171e-08
3.148085526e-09
4.930960873e-09
5.165056232e-10
2.685309539e-11
8.848975674e-13
1.586457893e-13
5.007143805e-15
0
0
0
0
0
0
0
0
0
0
0
0
0
0
0
0
0
0
0
0
0
0
0
0
0
0
0
0
0
0
0
0
0
0
0
0
0
0
0
0
0
0
0
0
0
0
0
0
0
0
0
1.813867674e-07
2.721805845e-08
4.177894939e-09
6.744304998e-09
9.324003864e-10
5.390809611e-11
2.098401463e-12
3.491539448e-13
1.865554655e-14
0
0
0
0
0
0
0
0
0
0
0
0
0
0
0
0
0
0
0
0
0
0
0
0
0
0
0
0
0
0
0
0
0
0
0
0
0
0
0
0
0
0
0
0
0
0
0
0
0
0
0
1.653200942e-07
2.774389306e-08
5.156989467e-09
1.030703539e-08
1.200258624e-09
7.095746969e-11
3.097070308e-12
2.125114685e-13
2.124225717e-14
7.436873053e-17
0
0
0
0
0
0
0
0
0
0
0
0
0
0
0
0
0
0
0
0
0
0
0
0
0
0
0
0
0
0
0
0
0
0
0
0
0
0
0
0
0
0
0
0
0
0
0
0
0
0
1.668230979e-07
2.962269974e-08
6.343744549e-09
1.834318635e-08
1.28718937e-09
6.354973077e-11
2.660260405e-12
8.204972605e-14
1.268434916e-14
2.065087814e-16
0
0
0
0
0
0
0
0
0
0
0
0
0
0
0
0
0
0
0
0
0
0
0
0
0
0
0
0
0
0
0
0
0
0
0
0
0
0
0
0
0
0
0
0
0
0
0
0
0
0
2.190060451e-07
3.694762917e-08
8.742464076e-09
2.773179288e-09
2.253021166e-10
1.405867675e-11
7.656760981e-13
1.486966593e-14
1.945139588e-14
5.420523565e-16
0
0
0
0
0
0
0
0
0
0
0
0
0
0
0
0
0
0
0
0
0
0
0
0
0
0
0
0
0
0
0
0
0
0
0
0
0
0
0
0
0
0
0
0
0
0
0
0
0
0
5.515677147e-08
1.261753179e-08
8.208837342e-09
8.1845415e-10
6.864120973e-11
4.831826828e-12
2.860379004e-13
3.711288373e-14
1.557580288e-15
1.980729024e-14
2.884561196e-16
0
0
0
0
0
0
0
0
0
0
0
0
0
0
0
0
0
0
0
0
0
0
0
0
0
0
0
0
0
0
0
0
0
0
0
0
0
0
0
0
0
0
0
0
0
0
0
0
0
3.504986704e-08
8.723921721e-09
1.465938072e-09
1.817962196e-10
1.818824613e-11
1.473151276e-12
1.328687188e-13
2.271140661e-14
8.708283983e-15
2.039475642e-14
2.035117242e-14
1.768632339e-17
0
0
0
0
0
0
0
0
0
0
0
0
0
0
0
0
0
0
0
0
0
0
0
0
0
0
0
0
0
0
0
0
0
0
0
0
0
0
0
0
0
0
0
0
0
0
0
0
4.463197411e-09
1.251969687e-09
2.384245561e-10
3.461391668e-11
3.932561558e-12
3.689618599e-13
6.519776262e-15
7.304159394e-15
2.590368752e-15
6.91392371e-15
2.142749321e-14
1.714535073e-14
0
0
0
0
0
0
0
0
0
0
0
0
0
0
0
0
0
0
0
0
0
0
0
0
0
0
0
0
0
0
0
0
0
0
0
0
0
0
0
0
0
0
0
0
0
0
0
0
5.346973274e-10
1.645692745e-10
3.537537829e-11
5.7444191e-12
7.490832657e-13
8.706421698e-14
1.022891146e-14
2.289521838e-15
2.226144325e-16
1.00857329e-16
2.432590869e-15
2.667399265e-14
2.237675883e-14
2.979438936e-17
0
0
0
0
0
0
0
0
0
0
0
0
0
0
0
0
0
0
0
0
0
0
0
0
0
0
0
0
0
0
0
0
0
0
0
0
0
0
0
0
0
0
0
0
0
0
6.300541463e-11
2.064501636e-11
4.870703837e-12
9.025608368e-13
1.467936608e-13
2.487778637e-14
6.484472962e-15
1.471922554e-15
9.912682207e-16
1.059197621e-15
0
3.174782629e-15
2.696233338e-14
1.856685542e-14
2.049581717e-16
0
0
0
0
0
0
0
0
0
0
0
0
0
0
0
0
0
0
0
0
0
0
0
0
0
0
0
0
0
0
0
0
0
0
0
0
0
0
0
0
0
0
0
0
0
7.273132674e-12
2.564512763e-12
6.881551294e-13
1.590182856e-13
3.726007936e-14
9.747719725e-15
3.024326896e-15
1.089301518e-15
1.264929564e-15
1.375826783e-15
1.275922462e-15
5.408540933e-16
5.447750382e-15
3.38582385e-14
2.598745462e-14
3.726130089e-15
0
0
0
0
0
0
0
0
0
0
0
0
0
0
0
0
0
0
0
0
0
0
0
0
0
0
0
0
0
0
0
0
0
0
0
0
0
0
0
0
0
0
0
0
8.958153981e-13
3.546999622e-13
1.115429399e-13
3.677068201e-14
1.23161769e-14
4.778675957e-15
2.137845281e-15
5.023304292e-16
8.082767542e-16
1.345423296e-15
3.358152319e-16
1.798318097e-16
0
0
3.15158355e-14
1.834172294e-14
6.578999583e-16
0
0
0
0
0
0
0
0
0
0
0
0
0
0
0
0
0
0
0
0
0
0
0
0
0
0
0
0
0
0
0
0
0
0
0
0
0
0
0
0
0
0
0
1.367683038e-13
6.687081132e-14
3.056414457e-14
1.412764845e-14
6.375844358e-15
3.044122106e-15
1.571855352e-15
8.727061887e-16
4.763427697e-16
1.29785244e-15
1.781319834e-15
3.520821159e-16
0
1.549082731e-15
5.985623592e-15
2.87509825e-14
1.113664823e-14
0
0
0
0
0
0
0
0
0
0
0
0
0
0
0
0
0
0
0
0
0
0
0
0
0
0
0
0
0
0
0
0
0
0
0
0
0
0
0
0
0
0
0
3.742199278e-14
2.177493036e-14
1.231347725e-14
6.047889297e-15
3.470727214e-15
1.77019881e-15
1.135926782e-15
7.027307521e-16
2.856222353e-16
1.095990341e-15
2.133775347e-15
2.561581717e-15
1.537802291e-15
0
4.077897248e-15
4.228155079e-14
5.08457438e-14
1.788076849e-14
0
0
0
0
0
0
0
0
0
0
0
0
0
0
0
0
0
0
0
0
0
0
0
0
0
0
0
0
0
0
0
0
0
0
0
0
0
0
0
0
0
0
1.438174652e-14
9.15768546e-15
5.085771791e-15
3.268292147e-15
1.980958296e-15
1.318718757e-15
1.009817163e-15
9.060076397e-16
1.089721703e-15
1.57359222e-15
2.519724879e-15
3.497178328e-15
3.316299741e-15
2.346449182e-15
1.707338486e-16
6.365222147e-15
5.653217652e-14
7.967642412e-14
2.475360719e-14
0
0
0
0
0
0
0
0
0
0
0
0
0
0
0
0
0
0
0
0
0
0
0
0
0
0
0
0
0
0
0
0
0
0
0
0
0
0
0
0
0
6.096703506e-15
4.108485412e-15
2.861086256e-15
1.883941165e-15
1.184172232e-15
1.006073182e-15
9.225240951e-16
9.405675826e-16
1.272438956e-15
1.756737295e-15
2.343500249e-15
3.150611764e-15
3.558584776e-15
1.954757557e-15
2.433631758e-15
5.304654297e-15
1.334983953e-14
4.935986447e-14
3.074988532e-14
5.411181911e-15
0
0
0
0
0
0
0
0
0
0
0
0
0
0
0
0
0
0
0
0
0
0
0
0
0
0
0
0
0
0
0
0
0
0
0
0
0
0
0
0
3.044399735e-15
2.291530107e-15
1.640080709e-15
1.262058844e-15
1.044250126e-15
9.953960819e-16
1.030902897e-15
1.222990937e-15
1.477154442e-15
1.968224282e-15
2.524002057e-15
3.289402e-15
3.818430492e-15
3.492947166e-15
2.316484889e-15
1.052460128e-16
5.393317051e-15
5.511192357e-14
7.323449675e-14
4.033576793e-14
6.063892343e-15
0
0
0
0
0
0
0
0
0
0
0
0
0
0
0
0
0
0
0
0
0
0
0
0
0
0
0
0
0
0
0
0
0
0
0
0
0
0
0
1.704425859e-15
1.396645849e-15
1.159099883e-15
1.042504685e-15
1.044583222e-15
1.114571874e-15
1.266299402e-15
1.51725637e-15
1.793621287e-15
2.254909792e-15
2.619627871e-15
3.622369163e-15
3.916544658e-15
3.917739435e-15
1.818266657e-15
7.762250185e-16
0
0
7.270489923e-14
9.0150038e-14
4.444666117e-14
2.972527959e-15
0
0
0
0
0
0
0
0
0
0
0
0
0
0
0
0
0
0
0
0
0
0
0
0
0
0
0
0
0
0
0
0
0
0
0
0
0
0
1.163791374e-15
1.063218683e-15
1.041834068e-15
1.081823695e-15
1.18756057e-15
1.34450202e-15
1.57938913e-15
1.945950324e-15
2.366213457e-15
2.789956361e-15
3.134092064e-15
3.590916448e-15
3.948278194e-15
4.041946976e-15
3.670492495e-15
2.457324349e-15
2.084126805e-15
1.5617099e-14
6.620196949e-14
9.273088639e-14
6.302013166e-14
2.238817771e-14
0
0
0
0
0
0
0
0
0
0
0
0
0
0
0
0
0
0
0
0
0
0
0
0
0
0
0
0
0
0
0
0
0
0
0
0
0
0
1.046144239e-15
1.094431926e-15
1.190096674e-15
1.31610939e-15
1.432319783e-15
1.737225762e-15
1.978133557e-15
2.515774702e-15
3.071005941e-15
3.517773867e-15
4.071564729e-15
3.89059349e-15
4.406737648e-15
4.476535966e-15
4.100657531e-15
1.80165923e-15
9.888116428e-16
1.633527106e-16
6.729902657e-16
7.745295024e-14
9.950645538e-14
6.103706527e-14
1.727710977e-14
0
0
0
0
0
0
0
0
0
0
0
0
0
0
0
0
0
0
0
0
0
0
0
0
0
0
0
0
0
0
0
0
0
0
0
0
0
1.258382634e-15
1.423761656e-15
1.604910906e-15
1.898330266e-15
2.178082749e-15
2.587943513e-15
2.956562309e-15
3.453605792e-15
4.1015356e-15
4.655899295e-15
5.242626909e-15
4.974291575e-15
5.343076593e-15
5.979037094e-15
6.457687411e-15
6.605675834e-15
7.097936759e-15
1.284138097e-14
3.469894767e-14
8.119261827e-14
1.17419081e-13
1.096995988e-13
5.923405628e-14
1.093754167e-14
0
0
0
0
0
0
0
0
0
0
0
0
0
0
0
0
0
0
0
0
0
0
0
0
0
0
0
0
0
0
0
0
0
0
0
0
1.743982742e-15
1.98776749e-15
2.441804506e-15
3.002811748e-15
3.417391909e-15
3.885705766e-15
4.387749124e-15
4.734413455e-15
5.206736828e-15
5.718799676e-15
6.252263465e-15
6.306411191e-15
6.325437876e-15
6.441933034e-15
6.18960933e-15
6.27440236e-15
5.722270633e-15
5.147332395e-15
4.414581797e-15
0
8.837282956e-14
1.215373323e-13
8.619105278e-14
3.566926713e-14
2.852981475e-16
0
0
0
0
0
0
0
0
0
0
0
0
0
0
0
0
0
0
0
0
0
0
0
0
0
0
0
0
0
0
0
0
0
0
0
2.385101228e-15
2.812121724e-15
3.438340864e-15
4.215631545e-15
4.863764062e-15
5.381922967e-15
5.800508236e-15
5.963506139e-15
6.26840857e-15
6.490142508e-15
6.680545661e-15
6.862395386e-15
6.569921115e-15
6.673304341e-15
6.413691449e-15
6.0586228e-15
4.989890859e-15
2.671859347e-15
1.391018374e-15
5.788289008e-15
1.578977261e-14
1.028911825e-13
1.245348233e-13
7.773216004e-14
2.516049403e-14
0
0
0
0
0
0
0
0
0
0
0
0
0
0
0
0
0
0
0
0
0
0
0
0
0
0
0
0
0
0
0
0
0
0
0
3.218485846e-15
3.748092204e-15
4.527669321e-15
5.186661328e-15
5.734728185e-15
6.129659254e-15
6.413228143e-15
6.43595493e-15
6.64642218e-15
6.564884046e-15
6.366632747e-15
6.212132014e-15
5.417285077e-15
5.663244435e-15
4.994691125e-15
4.462077156e-15
3.453288648e-15
1.139589292e-15
1.723400493e-16
0
0
9.206006461e-14
1.384597684e-13
1.135955828e-13
5.938364696e-14
1.022356803e-14
0
0
0
0
0
0
0
0
0
0
0
0
0
0
0
0
0
0
0
0
0
0
0
0
0
0
0
0
0
0
0
0
0
0
3.64891719e-15
4.107821849e-15
4.798720519e-15
5.313656413e-15
5.68705163e-15
5.893916618e-15
5.99321457e-15
5.851750197e-15
5.913228416e-15
5.650851804e-15
5.244708623e-15
4.837766363e-15
3.804939815e-15
3.62832775e-15
2.555819096e-15
1.817862343e-15
1.577579222e-15
3.841767099e-16
1.142074951e-16
0
3.063242575e-15
1.339500631e-14
1.074208224e-13
1.358173387e-13
9.303546474e-14
3.72316775e-14
3.716083718e-16
0
0
0
0
0
0
0
0
0
0
0
0
0
0
0
0
0
0
0
0
0
0
0
0
0
0
0
0
0
0
0
0
0
3.463261216e-15
3.965603582e-15
4.391879963e-15
4.713830552e-15
4.959346127e-15
5.011131909e-15
5.039907071e-15
4.976449386e-15
4.737508104e-15
4.343454142e-15
3.876308506e-15
3.30966324e-15
2.121503392e-15
1.094674766e-15
8.286635238e-16
4.695578042e-16
9.601753041e-16
1.055986458e-15
1.500364947e-16
1.049371098e-16
0
0
1.014770754e-13
1.658179602e-13
1.908775926e-13
8.906452997e-14
2.421959496e-14
0
0
0
0
0
0
0
0
0
0
0
0
0
0
0
0
0
0
0
0
0
0
0
0
0
0
0
0
0
0
0
0
0
2.78127034e-15
3.083942768e-15
3.317030413e-15
3.467740578e-15
3.571147429e-15
3.535201031e-15
3.525473562e-15
3.470422533e-15
3.262231661e-15
2.996518187e-15
2.715349142e-15
2.210070231e-15
1.307497603e-15
3.334984598e-16
6.690739892e-16
1.531696226e-16
1.185253347e-16
9.322701216e-16
1.325030503e-16
1.330827875e-16
3.816101676e-16
5.449413641e-15
1.903275413e-14
1.175827172e-13
1.524442694e-13
1.072071291e-13
4.892536864e-14
5.805170195e-15
0
0
0
0
0
0
0
0
0
0
0
0
0
0
0
0
0
0
0
0
0
0
0
0
0
0
0
0
0
0
0
0
1.753550795e-15
1.882263879e-15
1.976257344e-15
2.066896353e-15
2.051942929e-15
1.985140331e-15
1.97788862e-15
1.9582017e-15
1.835384757e-15
1.713407764e-15
1.623559383e-15
1.333611267e-15
7.898100015e-16
1.512261334e-16
6.51283598e-16
1.528223219e-16
1.355269204e-16
4.04740669e-16
4.87348025e-17
1.286925063e-16
1.139289754e-16
0
0
1.063646478e-13
1.660622772e-13
1.560815544e-13
9.426341168e-14
3.341533335e-14
2.635223926e-16
0
0
0
0
0
0
0
0
0
0
0
0
0
0
0
0
0
0
0
0
0
0
0
0
0
0
0
0
0
0
0
7.79613064e-16
8.072802658e-16
8.191972875e-16
8.456385107e-16
7.871979649e-16
7.59903791e-16
7.474339239e-16
7.87975225e-16
7.415594299e-16
7.176830971e-16
7.799120004e-16
7.220872566e-16
4.171243675e-16
8.281231204e-17
6.443217615e-16
1.442659515e-16
1.330634342e-16
3.669730466e-16
3.992308706e-17
1.285173066e-16
4.879043075e-16
2.726531662e-15
1.223249764e-14
2.528043533e-14
1.336863033e-13
1.668711293e-13
1.233260957e-13
6.253524909e-14
1.418258616e-14
0
0
0
0
0
0
0
0
0
0
0
0
0
0
0
0
0
0
0
0
0
0
0
0
0
0
0
0
0
0
0
1.647796475e-16
1.60232935e-16
1.966226825e-16
1.765164341e-16
8.822735173e-17
7.67161645e-17
3.81185472e-17
1.243343071e-16
1.252150576e-16
1.288710189e-16
2.004160354e-16
3.735472819e-16
1.621052328e-16
6.218300516e-17
6.006704399e-16
1.549559611e-16
1.002781885e-16
2.278955092e-17
4.645519519e-16
1.245898158e-16
1.269700397e-16
2.65947742e-16
5.175525022e-16
0
1.166286856e-13
1.811591991e-13
1.759104388e-13
1.091292038e-13
4.321250074e-14
1.913285156e-15
0
0
0
0
0
0
0
0
0
0
0
0
0
0
0
0
0
0
0
0
0
0
0
0
0
0
0
0
0
0
1.819703765e-18
1.214022641e-17
1.514673126e-17
3.304578005e-19
0
1.709771382e-20
2.432102233e-17
7.476691669e-18
8.916189959e-18
1.379624521e-18
3.474113336e-17
2.044313559e-16
6.258619663e-17
3.408007391e-18
5.872934405e-16
0
9.636098572e-17
1.295023085e-16
3.98273127e-16
1.003971622e-16
1.305969157e-16
1.278832896e-16
0
0
3.802437378e-14
1.435802371e-13
1.787099197e-13
1.355739466e-13
7.268237598e-14
2.004565904e-14
0
0
0
0
0
0
0
0
0
0
0
0
0
0
0
0
0
0
0
0
0
0
0
0
0
0
0
0
0
0
0
0
0
0
0
0
2.941881633e-17
1.777054031e-18
0
9.460469449e-18
2.23559835e-17
1.031233072e-16
0
2.397439691e-18
5.830812737e-16
0
9.57309116e-17
1.307039476e-16
3.74937328e-16
9.408957619e-17
1.234817067e-16
1.154727946e-16
0
0
0
1.243603183e-13
1.91011789e-13
1.848877132e-13
1.181003029e-13
4.993530466e-14
5.827380257e-15
0
0
0
0
0
0
0
0
0
0
0
0
0
0
0
0
0
0
0
0
0
0
0
0
0
0
0
0
0
0
0
0
0
0
1.117355469e-17
1.270584581e-18
0
0
2.0309913e-17
2.355199267e-19
9.289512499e-17
0
0
4.153963674e-18
7.414761168e-17
1.228059344e-16
1.400819562e-16
3.238755663e-16
1.112538592e-16
1.618526797e-16
1.251544261e-16
1.131773061e-16
0
0
9.86279951e-14
1.757897182e-13
1.987116737e-13
1.502320067e-13
8.240223005e-14
2.561051424e-14
1.958545263e-16
0
0
0
0
0
0
0
0
0
0
0
0
0
0
0
0
0
0
0
0
0
0
0
0
0
0
0
0
0
0
0
0
0
6.336980574e-18
0
0
0
2.100300182e-17
3.93531382e-18
1.012341022e-16
0
9.405194314e-17
3.521527792e-16
1.141392337e-15
2.122620927e-15
3.350102071e-15
4.642678722e-15
5.574697387e-15
6.975788856e-15
7.51957881e-15
7.313009543e-15
6.52594486e-15
1.03498911e-14
1.616727571e-14
1.449388668e-13
2.130996183e-13
2.125789257e-13
1.30625061e-13
5.598044408e-14
8.847194934e-15
0
0
0
0
0
0
0
0
0
0
0
0
0
0
0
0
0
0
0
0
0
0
0
0
0
0
0
0
0
0
0
0
1.112193391e-17
7.798849868e-19
0
0
0
2.087747228e-17
2.655267081e-16
8.257779287e-16
1.57801255e-15
2.77140222e-15
4.105970006e-15
6.073806259e-15
8.274728928e-15
9.922453001e-15
1.109531926e-14
9.824223355e-15
1.419351619e-14
1.527838174e-14
1.474621617e-14
1.170022398e-14
6.39061406e-15
0
1.204876435e-13
2.00377116e-13
2.166000214e-13
1.590121876e-13
8.644717481e-14
2.76548472e-14
2.810411009e-16
0
0
0
0
0
0
0
0
0
0
0
0
0
0
0
0
0
0
0
0
0
0
0
0
0
0
0
0
0
0
0
9.791281503e-18
3.804063501e-17
9.277040309e-17
1.822633949e-16
3.214227532e-16
1.134498779e-15
1.707625035e-15
2.962111066e-15
4.585392995e-15
6.742752837e-15
9.128955753e-15
1.221365068e-14
1.533975529e-14
1.82225487e-14
2.037612541e-14
2.008014889e-14
2.389763846e-14
2.476825337e-14
2.354021879e-14
2.06443126e-14
1.750352667e-14
2.077732455e-14
2.854266964e-14
1.579969817e-13
2.226573167e-13
2.250351645e-13
1.31736959e-13
5.535126113e-14
8.672758046e-15
0
0
0
0
0
0
0
0
0
0
0
0
0
0
0
0
0
0
0
0
0
0
0
0
0
0
0
0
0
0
3.78959342e-17
1.007809896e-16
2.229371211e-16
4.109656343e-16
6.586512765e-16
1.026317145e-15
2.065693864e-15
3.35070196e-15
4.876239114e-15
7.042276064e-15
9.467041102e-15
1.192720724e-14
1.550007311e-14
1.936970584e-14
2.27742739e-14
2.539189734e-14