/*--------------------------------*- C++ -*----------------------------------*\
  =========                 |
  \\      /  F ield         | OpenFOAM: The Open Source CFD Toolbox
   \\    /   O peration     | Website:  https://openfoam.org
    \\  /    A nd           | Version:  10
     \\/     M anipulation  |
\*---------------------------------------------------------------------------*/
FoamFile
{
    format      ascii;
    class       volScalarField;
    location    "0.02499901733";
    object      CH2OH;
}
// * * * * * * * * * * * * * * * * * * * * * * * * * * * * * * * * * * * * * //

dimensions      [0 0 0 0 0 0 0];

internalField   nonuniform List<scalar> 
5170
(
0
0
0
0
0
0
0
0
0
0
0
0
0
0
0
0
0
0
0
0
0
0
0
0
0
0
0
0
0
0
0
0
0
0
0
0
0
0
0
0
0
0
0
0
0
0
0
0
0
0
0
0
0
0
0
0
0
0
0
0
0
0
0
0
0
0
0
0
0
0
0
0
0
0
0
0
0
0
0
0
0
0
0
0
0
0
0
0
0
0
0
0
0
0
0
0
0
0
0
0
2.161699834e-17
6.678746588e-17
4.994083916e-17
1.596990862e-16
6.035304104e-18
6.794950359e-16
3.015065356e-16
0
0
0
8.406670438e-17
1.795613762e-16
0
0
0
2.083993993e-17
5.368012131e-17
0
6.204529228e-18
2.497906707e-17
0
0
0
0
0
0
0
2.495503891e-16
1.260018152e-14
0
0
0
0
1.235053593e-12
0
1.392581291e-10
4.370841835e-12
0
0
7.01645945e-10
7.626833905e-10
3.857027226e-11
0
4.367603136e-10
1.501112541e-11
1.207550508e-10
5.628200724e-10
5.001751949e-10
2.331099576e-10
7.681442372e-12
1.499388378e-11
1.432181064e-10
1.397868352e-10
0
9.882812401e-12
8.79428296e-12
0
0
7.528722485e-12
3.107716793e-12
3.136450495e-12
2.84194392e-12
8.199473044e-12
3.736029668e-12
2.342796018e-11
1.736984374e-11
3.44855607e-12
1.353291487e-12
9.49745414e-12
2.53886956e-11
2.708966966e-11
1.059451957e-11
8.429292849e-12
1.904672093e-11
2.377243702e-11
2.596799405e-11
2.041446158e-11
1.889087441e-11
2.397686192e-11
2.236184124e-11
2.052985487e-11
2.34153587e-11
2.311964562e-11
2.303727578e-11
2.08743927e-11
1.698405865e-11
2.085616147e-11
2.124735118e-11
1.997008551e-11
1.913702039e-11
2.507403226e-11
2.226317904e-11
1.914334002e-11
1.776811401e-11
1.716935871e-11
9.511320981e-10
5.864369055e-10
8.700464534e-11
3.063321686e-11
1.591095782e-12
0
0
0
9.851861816e-14
1.786310008e-11
0
0
3.496943266e-13
5.322871038e-12
1.634897705e-10
0
0
5.590873098e-13
7.509966257e-12
1.457820463e-10
0
3.216301661e-14
9.131719289e-13
1.506956914e-11
2.604920014e-10
0
1.365318836e-13
1.821877796e-12
2.917615046e-11
4.168893396e-10
1.975210797e-15
3.063293895e-13
2.420529707e-12
4.040569166e-11
4.474246565e-10
3.473700329e-14
5.130275205e-13
2.745291467e-12
3.655680177e-11
3.192464722e-10
6.82889793e-14
4.691303922e-13
2.721115465e-12
2.828252559e-11
2.027363821e-10
3.503685639e-14
7.225997521e-14
3.538379092e-12
3.438881745e-11
2.496155437e-10
5.730139302e-14
3.839696416e-13
5.35675007e-12
4.718312741e-11
3.181274408e-10
2.082477476e-13
1.048569268e-12
7.798977041e-12
6.02083678e-11
3.699693121e-10
1.891747483e-13
1.181407992e-12
9.132830694e-12
5.957621716e-11
3.170023607e-10
0
1.389743956e-12
9.448113453e-12
5.402886054e-11
2.619181304e-10
3.337542792e-13
1.920218043e-12
1.164326986e-11
6.320933518e-11
3.033786189e-10
8.439051269e-13
3.538456576e-12
1.447924873e-11
7.10345458e-11
3.14760371e-10
4.740685161e-13
4.145967414e-12
1.927104973e-11
8.91504371e-11
3.03515378e-10
1.950789681e-12
5.986037002e-12
2.436156052e-11
9.82739101e-11
3.653614672e-10
3.000077275e-12
7.103711964e-12
2.356276947e-11
1.453714161e-10
5.436014112e-10
7.070378812e-12
1.658321738e-11
5.703455976e-11
2.065850911e-10
6.865473935e-10
1.20782695e-11
2.423012241e-11
6.856190704e-11
2.020152188e-10
5.633283664e-10
1.786317455e-11
2.831204004e-11
6.000414766e-11
1.36482197e-10
3.048252434e-10
1.997036761e-11
2.538028166e-11
3.961274003e-11
6.818938801e-11
1.205055297e-10
1.388742162e-11
1.566198095e-11
1.971052423e-11
2.676223237e-11
3.781784657e-11
6.061821727e-12
6.3850671e-12
7.079509001e-12
8.121019205e-12
9.506878718e-12
1.880645975e-12
1.930606957e-12
1.996641395e-12
2.060258992e-12
2.194842801e-12
5.145867905e-13
5.169194229e-13
5.169006527e-13
5.076318758e-13
4.962104304e-13
1.613855057e-13
1.604068189e-13
1.572001289e-13
1.51632463e-13
1.441028989e-13
5.711411462e-14
5.650850843e-14
5.497068885e-14
5.256701551e-14
4.949184337e-14
2.177315916e-14
2.157981009e-14
2.128882356e-14
2.046472915e-14
1.941386271e-14
8.982090588e-15
8.807289753e-15
8.60602115e-15
8.39395925e-15
7.983345943e-15
3.894020703e-15
3.896998253e-15
3.917973177e-15
3.81834135e-15
3.664341664e-15
2.052024998e-15
2.03931881e-15
2.009034701e-15
1.95965253e-15
1.895676989e-15
1.252249229e-15
1.247149025e-15
1.2357466e-15
1.219527888e-15
1.20153369e-15
9.951068686e-16
9.953654227e-16
9.959671693e-16
9.970603617e-16
9.987259964e-16
1.034493581e-15
1.039761345e-15
1.051651721e-15
1.069938679e-15
1.094635441e-15
1.284609545e-15
1.293772578e-15
1.314261997e-15
1.345254111e-15
1.384870338e-15
1.569447684e-15
1.58488321e-15
1.619373535e-15
1.672073739e-15
1.742419061e-15
1.753849278e-15
1.775077187e-15
1.822083945e-15
1.893690029e-15
1.989526776e-15
1.675101862e-15
1.699910934e-15
1.754458988e-15
1.837124891e-15
1.94680813e-15
1.255558735e-15
1.27800804e-15
1.323577502e-15
1.391237845e-15
1.480964499e-15
6.776057891e-16
6.937274312e-16
7.264451811e-16
7.752317828e-16
8.399315343e-16
1.797090907e-16
1.899139382e-16
2.119596388e-16
2.45425668e-16
2.908788053e-16
6.213772787e-17
6.504030456e-17
7.117109719e-17
8.00901836e-17
9.141944202e-17
1.823528928e-18
1.78838159e-18
1.106534083e-18
1.117876707e-18
1.212019794e-18
0
0
0
0
0
0
0
0
0
0
0
0
0
0
0
1.011649691e-18
7.040389453e-19
2.135220938e-19
0
0
0
0
0
0
0
0
0
0
0
0
0
0
0
0
0
8.943165777e-17
8.781857638e-17
8.474536718e-17
8.062531209e-17
7.530215086e-17
2.576292021e-16
2.527815972e-16
2.427404597e-16
2.283817423e-16
2.102365644e-16
3.880112321e-16
3.80770353e-16
3.655816732e-16
3.433372429e-16
3.15043804e-16
4.629047115e-16
4.550511085e-16
4.383541179e-16
4.138290015e-16
3.821341966e-16
5.574054319e-16
5.480732094e-16
5.283635014e-16
4.998019773e-16
4.63396047e-16
6.897202419e-16
6.78016187e-16
6.531751133e-16
6.169311229e-16
5.705168408e-16
8.652820964e-16
8.507897022e-16
8.200391607e-16
7.752417566e-16
7.179214343e-16
1.183268211e-15
1.164192745e-15
1.123397512e-15
1.062980023e-15
9.835731127e-16
1.673935246e-15
1.650909529e-15
1.602051309e-15
1.530562805e-15
1.438376181e-15
2.397005026e-15
2.373315784e-15
2.323063423e-15
2.249498449e-15
2.15458974e-15
2.926944672e-15
2.90668081e-15
2.864140724e-15
2.803761465e-15
2.730711317e-15
3.233095091e-15
3.217807743e-15
3.188244949e-15
3.150974403e-15
3.11535785e-15
3.333897234e-15
3.307228203e-15
3.26671859e-15
3.207664639e-15
3.11785121e-15
4.153801901e-15
4.111851872e-15
4.023975543e-15
3.895922595e-15
3.73058523e-15
5.816895406e-15
5.76100142e-15
5.646242408e-15
5.489522455e-15
5.304392364e-15
7.927487364e-15
7.854410901e-15
7.696768071e-15
7.462607523e-15
7.154381019e-15
8.864643333e-15
8.781811681e-15
8.601081036e-15
8.330476371e-15
7.97488164e-15
1.021734689e-14
1.013082001e-14
9.94137542e-15
9.656385416e-15
9.282375322e-15
1.313278668e-14
1.308198836e-14
1.297594663e-14
1.282411114e-14
1.263674913e-14
1.259386146e-10
1.808087089e-09
1.055984604e-09
1.932021474e-09
2.716100182e-09
2.330201664e-09
1.426912362e-09
8.406445489e-10
1.075100568e-09
1.270330485e-09
1.383920322e-09
1.049006129e-09
8.202361994e-10
9.676784074e-10
9.386043355e-10
8.401060567e-10
9.759918467e-10
1.4315702e-09
1.63216096e-09
1.143263893e-09
5.288235872e-10
1.801077959e-10
4.896055623e-11
1.106936785e-11
2.298873539e-12
4.9225825e-13
1.393340396e-13
4.753008185e-14
1.87368846e-14
7.681166443e-15
3.550454121e-15
1.850860566e-15
1.186676974e-15
1.000059736e-15
1.113009237e-15
1.41306887e-15
1.797436318e-15
2.066653713e-15
2.032956361e-15
1.554569738e-15
8.955580358e-16
3.308974039e-16
1.008976073e-16
7.800580344e-20
0
0
0
0
0
0
0
6.9742764e-17
1.949258758e-16
2.923296659e-16
3.561586625e-16
4.337802135e-16
5.33011505e-16
6.716212275e-16
9.176916223e-16
1.3618343e-15
2.075110948e-15
2.672308185e-15
3.100749048e-15
3.030870419e-15
3.592642898e-15
5.156291517e-15
6.904910206e-15
7.690255279e-15
8.985390704e-15
1.24843743e-14
4.321025864e-10
5.068667431e-10
5.539437207e-11
2.731152088e-10
1.378581843e-11
1.004726199e-08
1.653349902e-07
9.505721666e-09
3.031472333e-10
8.41193287e-11
4.328765656e-09
3.70819976e-08
8.659169645e-09
7.194229119e-10
3.828667299e-10
9.070721416e-09
1.148411247e-07
1.301985467e-06
9.723293904e-08
5.594721321e-09
1.18181072e-08
1.294171114e-07
1.22216566e-06
1.261598411e-07
9.328549737e-09
8.344715128e-09
7.299700817e-08
5.235556432e-07
7.314643771e-08
7.098372993e-09
4.895593485e-09
3.62368858e-08
2.230239261e-07
3.905533819e-08
5.020133613e-09
3.020112242e-09
2.287281055e-08
1.437728324e-07
4.228881273e-07
5.30859266e-08
3.75178597e-09
3.150745151e-08
2.270789375e-07
1.373261579e-06
1.961162941e-07
4.105362836e-09
3.07634645e-08
1.990760811e-07
1.102851e-06
1.864655264e-07
4.324319185e-09
2.488358316e-08
1.465796153e-07
7.447560501e-07
1.418100088e-07
2.996225666e-09
1.869251443e-08
1.020727461e-07
4.816114432e-07
1.612388405e-07
2.281638957e-09
1.710077333e-08
8.933044951e-08
4.327486666e-07
9.836121481e-07
2.752865993e-09
1.716643027e-08
8.215521246e-08
3.835263669e-07
1.141157952e-06
2.536421956e-09
1.424500935e-08
6.998127542e-08
3.19191051e-07
9.884390413e-07
2.172723576e-09
1.130536728e-08
6.109904531e-08
2.627240318e-07
8.164721937e-07
2.427792526e-09
1.208130807e-08
5.94312324e-08
2.485489022e-07
7.752502483e-07
3.52941691e-09
1.757109264e-08
8.051784684e-08
3.353857447e-07
1.037121411e-06
3.657147122e-09
1.541467889e-08
5.951195411e-08
2.078173038e-07
2.390908763e-07
2.242051803e-09
6.91056585e-09
1.836542815e-08
4.018799749e-08
5.510015007e-08
9.326860455e-10
2.19294752e-09
4.293170541e-09
6.713337368e-09
7.217106108e-09
2.878385671e-10
5.440214374e-10
8.456710143e-10
1.036411376e-09
9.154066254e-10
6.979533471e-11
1.077016701e-10
1.388836768e-10
1.442055762e-10
1.138225201e-10
1.39702669e-11
1.79487734e-11
1.999854392e-11
1.863574273e-11
1.384889633e-11
2.599547011e-12
2.862989545e-12
2.821584348e-12
2.419378182e-12
1.738099219e-12
5.068666814e-13
4.897241733e-13
4.34615983e-13
3.505702865e-13
2.513520201e-13
1.370493887e-13
1.243840634e-13
1.050557555e-13
8.290587302e-14
6.295388278e-14
4.597248597e-14
4.149100778e-14
3.407182675e-14
2.452489895e-14
2.060606275e-14
1.817466183e-14
1.684235513e-14
1.407880728e-14
1.094216106e-14
8.191843904e-15
7.393313155e-15
6.535085903e-15
5.817916545e-15
4.938009147e-15
3.961618313e-15
3.439113199e-15
3.161329372e-15
2.853795712e-15
2.484259389e-15
2.081500081e-15
1.80508622e-15
1.688040655e-15
1.554362449e-15
1.440894206e-15
1.306056262e-15
1.170590464e-15
1.134632602e-15
1.096568653e-15
1.062803715e-15
1.041473772e-15
9.997785228e-16
1.013592467e-15
1.041539561e-15
1.082813474e-15
1.136494419e-15
1.13249123e-15
1.188977456e-15
1.271184919e-15
1.374389486e-15
1.519659489e-15
1.442296648e-15
1.543657896e-15
1.695336985e-15
1.882879662e-15
2.099068686e-15
1.867770635e-15
2.032545841e-15
2.24905463e-15
2.508594659e-15
2.847348604e-15
2.174882218e-15
2.392806425e-15
2.708999011e-15
3.019772963e-15
3.318943984e-15
2.161135752e-15
2.397613139e-15
2.666710865e-15
2.933905605e-15
3.18884638e-15
1.669820109e-15
1.8627787e-15
2.065540998e-15
2.264142426e-15
2.44657696e-15
9.85706577e-16
1.136270408e-15
1.298669234e-15
1.479910288e-15
1.628137163e-15
3.99272796e-16
5.282944041e-16
6.243434766e-16
6.956389796e-16
7.45693101e-16
1.187554664e-16
1.451577098e-16
1.61282735e-16
1.670224869e-16
1.715289064e-16
0
0
0
0
1.337370913e-19
0
0
0
0
0
0
0
0
0
0
0
0
0
0
0
0
0
0
0
0
0
0
0
0
0
0
0
0
0
0
0
0
0
0
0
5.676731935e-17
3.789816358e-17
2.0757209e-17
5.961905339e-18
0
1.664926859e-16
1.240156314e-16
8.461958386e-17
5.01321112e-17
2.380819026e-17
2.5270026e-16
1.91708903e-16
1.354178664e-16
8.762316573e-17
4.80389179e-17
3.132448011e-16
2.472251192e-16
1.83672378e-16
1.254998265e-16
7.446875643e-17
3.849382189e-16
3.064411633e-16
2.296763443e-16
1.586640839e-16
9.794425833e-17
4.720623241e-16
3.753250447e-16
2.822898356e-16
1.972147371e-16
1.23617351e-16
5.963728236e-16
4.750152309e-16
3.559863262e-16
2.420282684e-16
1.338903085e-16
8.10040071e-16
6.363696552e-16
4.710983405e-16
3.194736081e-16
1.859764602e-16
1.232729818e-15
1.02390676e-15
8.174249081e-16
6.241115672e-16
4.56557535e-16
1.938462404e-15
1.717580218e-15
1.500657946e-15
1.309122773e-15
1.140565177e-15
2.568281879e-15
2.442230489e-15
2.398296907e-15
2.505019991e-15
2.840503779e-15
3.079415898e-15
3.158944811e-15
2.703675559e-15
2.408138313e-15
2.229436902e-15
2.86377954e-15
2.595695176e-15
2.314064544e-15
2.054086666e-15
1.839323776e-15
3.346204763e-15
2.957947844e-15
2.577736731e-15
2.2299028e-15
1.960495432e-15
4.909539842e-15
4.412671861e-15
3.895114892e-15
3.420175454e-15
2.898705596e-15
6.538566841e-15
5.899307456e-15
5.212833235e-15
4.415313456e-15
3.568219314e-15
7.27532265e-15
6.506527349e-15
5.64709462e-15
4.750101563e-15
3.909296056e-15
8.555351447e-15
7.789932936e-15
6.856205345e-15
6.100498517e-15
5.496578869e-15
1.219092252e-14
1.178022841e-14
1.139873511e-14
1.099704685e-14
1.059742021e-14
9.041815929e-14
1.612560933e-14
0
0
0
0
0
0
0
0
0
0
0
0
0
0
0
0
0
0
0
0
0
0
0
0
0
0
0
0
0
0
0
0
0
0
0
0
0
0
0
0
0
0
0
0
0
0
0
0
0
0
0
0
0
0
0
0
0
0
1.065971592e-12
2.546887196e-13
0
0
0
0
0
0
0
0
0
0
0
0
0
0
0
0
0
0
0
0
0
0
0
0
0
0
0
0
0
0
0
0
0
0
0
0
0
0
0
0
0
0
0
0
0
0
0
0
0
0
0
0
0
0
0
0
0
0
4.503618321e-12
1.014150811e-17
0
0
0
0
0
0
0
0
0
0
0
0
0
0
0
0
0
0
0
0
0
0
0
0
0
0
0
0
0
0
0
0
0
0
0
0
0
0
0
0
0
0
0
0
0
0
0
0
0
0
0
0
0
0
0
0
0
0
9.891087451e-11
7.728151281e-13
6.387568694e-14
0
0
0
0
0
0
0
0
0
0
0
0
0
0
0
0
0
0
0
0
0
0
0
0
0
0
0
0
0
0
0
0
0
0
0
0
0
0
0
0
0
0
0
0
0
0
0
0
0
0
0
0
0
0
0
0
0
4.236153453e-10
6.128441414e-12
2.122022688e-13
1.096695091e-14
0
0
0
0
0
0
0
0
0
0
0
0
0
0
0
0
0
0
0
0
0
0
0
0
0
0
0
0
0
0
0
0
0
0
0
0
0
0
0
0
0
0
0
0
0
0
0
0
0
0
0
0
0
0
0
0
1.121935497e-09
4.520890689e-11
8.419247218e-13
1.577164766e-13
9.175298301e-17
0
0
0
0
0
0
0
0
0
0
0
0
0
0
0
0
0
0
0
0
0
0
0
0
0
0
0
0
0
0
0
0
0
0
0
0
0
0
0
0
0
0
0
0
0
0
0
0
0
0
0
0
0
0
0
1.25940317e-09
1.807145643e-10
6.911325157e-12
1.583958323e-13
2.627937035e-14
0
0
0
0
0
0
0
0
0
0
0
0
0
0
0
0
0
0
0
0
0
0
0
0
0
0
0
0
0
0
0
0
0
0
0
0
0
0
0
0
0
0
0
0
0
0
0
0
0
0
0
0
0
0
0
4.155934001e-09
6.53077899e-10
4.469340528e-11
1.414423645e-12
1.771040999e-14
1.09482854e-14
0
0
0
0
0
0
0
0
0
0
0
0
0
0
0
0
0
0
0
0
0
0
0
0
0
0
0
0
0
0
0
0
0
0
0
0
0
0
0
0
0
0
0
0
0
0
0
0
0
0
0
0
0
0
1.743773155e-08
1.798835292e-09
2.207620844e-10
1.146183577e-11
3.632045955e-13
1.224754375e-13
4.626017036e-16
0
0
0
0
0
0
0
0
0
0
0
0
0
0
0
0
0
0
0
0
0
0
0
0
0
0
0
0
0
0
0
0
0
0
0
0
0
0
0
0
0
0
0
0
0
0
0
0
0
0
0
0
0
2.018684079e-08
2.163277734e-09
7.003083986e-10
5.419668844e-11
2.531913847e-12
7.788795171e-14
2.352256828e-14
0
0
0
0
0
0
0
0
0
0
0
0
0
0
0
0
0
0
0
0
0
0
0
0
0
0
0
0
0
0
0
0
0
0
0
0
0
0
0
0
0
0
0
0
0
0
0
0
0
0
0
0
0
1.794369999e-08
1.75093094e-09
1.354378326e-09
2.130781531e-10
1.281979018e-11
4.701918509e-13
1.280908132e-13
2.504138918e-15
0
0
0
0
0
0
0
0
0
0
0
0
0
0
0
0
0
0
0
0
0
0
0
0
0
0
0
0
0
0
0
0
0
0
0
0
0
0
0
0
0
0
0
0
0
0
0
0
0
0
0
0
2.278669405e-08
2.551307713e-09
1.528176534e-09
8.031190628e-10
5.560080711e-11
2.256018507e-12
5.920939522e-14
1.788972737e-14
0
0
0
0
0
0
0
0
0
0
0
0
0
0
0
0
0
0
0
0
0
0
0
0
0
0
0
0
0
0
0
0
0
0
0
0
0
0
0
0
0
0
0
0
0
0
0
0
0
0
0
0
1.392802045e-07
1.57128182e-08
2.310135166e-09
2.52848842e-09
2.00174828e-10
9.041256213e-12
2.576685423e-13
4.838883961e-14
1.640769832e-16
0
0
0
0
0
0
0
0
0
0
0
0
0
0
0
0
0
0
0
0
0
0
0
0
0
0
0
0
0
0
0
0
0
0
0
0
0
0
0
0
0
0
0
0
0
0
0
0
0
0
0
1.857886953e-07
2.42619711e-08
3.128727645e-09
4.859428953e-09
5.176112514e-10
2.711853832e-11
8.996405766e-13
1.611650687e-13
5.231361646e-15
0
0
0
0
0
0
0
0
0
0
0
0
0
0
0
0
0
0
0
0
0
0
0
0
0
0
0
0
0
0
0
0
0
0
0
0
0
0
0
0
0
0
0
0
0
0
0
0
0
0
0
1.809946176e-07
2.710622993e-08
4.136040842e-09
6.553790067e-09
9.444808741e-10
5.507896241e-11
2.155749099e-12
3.614218722e-13
1.979168493e-14
0
0
0
0
0
0
0
0
0
0
0
0
0
0
0
0
0
0
0
0
0
0
0
0
0
0
0
0
0
0
0
0
0
0
0
0
0
0
0
0
0
0
0
0
0
0
0
0
0
0
0
1.645694987e-07
2.757416736e-08
5.051941744e-09
9.647435149e-09
1.194015595e-09
7.153543516e-11
3.153734166e-12
1.52297118e-13
2.18630397e-14
0
0
0
0
0
0
0
0
0
0
0
0
0
0
0
0
0
0
0
0
0
0
0
0
0
0
0
0
0
0
0
0
0
0
0
0
0
0
0
0
0
0
0
0
0
0
0
0
0
0
0
1.6461345e-07
2.929875208e-08
6.539654986e-09
2.027670304e-08
1.449373952e-09
7.189130723e-11
2.987644095e-12
1.245549164e-13
1.164135787e-14
5.222574722e-17
0
0
0
0
0
0
0
0
0
0
0
0
0
0
0
0
0
0
0
0
0
0
0
0
0
0
0
0
0
0
0
0
0
0
0
0
0
0
0
0
0
0
0
0
0
0
0
0
0
0
2.132526728e-07
3.605786997e-08
7.582453787e-09
3.004875473e-09
2.427728849e-10
1.492644808e-11
8.036299735e-13
2.219634648e-14
1.738710893e-14
4.217703721e-16
0
0
0
0
0
0
0
0
0
0
0
0
0
0
0
0
0
0
0
0
0
0
0
0
0
0
0
0
0
0
0
0
0
0
0
0
0
0
0
0
0
0
0
0
0
0
0
0
0
0
5.564361727e-08
1.111754941e-08
9.625765842e-09
8.614243088e-10
6.529469337e-11
4.423364179e-12
2.70746242e-13
4.081030357e-14
1.794038598e-15
1.746576043e-14
1.396212335e-16
0
0
0
0
0
0
0
0
0
0
0
0
0
0
0
0
0
0
0
0
0
0
0
0
0
0
0
0
0
0
0
0
0
0
0
0
0
0
0
0
0
0
0
0
0
0
0
0
0
3.99479928e-08
9.332654733e-09
1.48595643e-09
1.688135268e-10
1.617231132e-11
1.342827396e-12
1.413721961e-13
2.512178357e-14
8.932029838e-15
1.829398625e-14
1.980444393e-14
0
0
0
0
0
0
0
0
0
0
0
0
0
0
0
0
0
0
0
0
0
0
0
0
0
0
0
0
0
0
0
0
0
0
0
0
0
0
0
0
0
0
0
0
0
0
0
0
0
4.56552939e-09
1.229745638e-09
2.233847714e-10
3.150992669e-11
3.639993633e-12
3.571934734e-13
0
6.933073311e-15
2.597289953e-15
3.334005717e-15
1.920495737e-14
1.666808097e-14
0
0
0
0
0
0
0
0
0
0
0
0
0
0
0
0
0
0
0
0
0
0
0
0
0
0
0
0
0
0
0
0
0
0
0
0
0
0
0
0
0
0
0
0
0
0
0
0
5.13436736e-10
1.562810538e-10
3.336714773e-11
5.50055245e-12
7.434619213e-13
8.984732951e-14
1.070943712e-14
2.395760977e-15
1.469839346e-16
4.567058251e-18
2.411296718e-15
2.430486283e-14
2.180682586e-14
0
0
0
0
0
0
0
0
0
0
0
0
0
0
0
0
0
0
0
0
0
0
0
0
0
0
0
0
0
0
0
0
0
0
0
0
0
0
0
0
0
0
0
0
0
0
0
6.092191295e-11
2.015227295e-11
4.836242856e-12
9.199435358e-13
1.533628389e-13
2.765709952e-14
7.047384806e-15
1.561307568e-15
9.88829438e-16
9.507815527e-16
0
3.133548448e-15
2.456841827e-14
1.810933382e-14
5.578807128e-17
0
0
0
0
0
0
0
0
0
0
0
0
0
0
0
0
0
0
0
0
0
0
0
0
0
0
0
0
0
0
0
0
0
0
0
0
0
0
0
0
0
0
0
0
0
7.373074016e-12
2.634400526e-12
7.189983849e-13
1.6818247e-13
3.894911694e-14
8.66210433e-15
3.089601943e-15
1.154401283e-15
1.258733393e-15
1.350084844e-15
1.180292996e-15
5.071109851e-16
5.430725654e-15
3.135877732e-14
2.546280623e-14
3.544324156e-15
0
0
0
0
0
0
0
0
0
0
0
0
0
0
0
0
0
0
0
0
0
0
0
0
0
0
0
0
0
0
0
0
0
0
0
0
0
0
0
0
0
0
0
0
9.497064899e-13
3.779396411e-13
1.206132319e-13
3.923032927e-14
1.327619251e-14
5.034001336e-15
2.194567848e-15
4.443028818e-16
7.869303181e-16
1.279012448e-15
2.118864069e-16
0
0
2.419994884e-15
2.898882005e-14
1.797100099e-14
4.944344802e-16
0
0
0
0
0
0
0
0
0
0
0
0
0
0
0
0
0
0
0
0
0
0
0
0
0
0
0
0
0
0
0
0
0
0
0
0
0
0
0
0
0
0
0
1.482254485e-13
7.166448898e-14
3.228138376e-14
1.449538506e-14
6.617116246e-15
3.160769606e-15
1.61566433e-15
8.738883115e-16
3.753682391e-16
1.27366051e-15
1.68508023e-15
2.232548365e-16
0
1.375241537e-15
4.555248094e-15
2.628819141e-14
1.090392135e-14
0
0
0
0
0
0
0
0
0
0
0
0
0
0
0
0
0
0
0
0
0
0
0
0
0
0
0
0
0
0
0
0
0
0
0
0
0
0
0
0
0
0
0
3.95820247e-14
2.280222109e-14
1.291091825e-14
6.609509052e-15
3.615326251e-15
1.826143342e-15
1.151680404e-15
6.871770717e-16
1.882518369e-16
1.080182643e-15
2.101172506e-15
2.477063264e-15
1.297306807e-15
4.201146216e-17
4.157708525e-15
3.978990412e-14
4.825871308e-14
1.767649878e-14
0
0
0
0
0
0
0
0
0
0
0
0
0
0
0
0
0
0
0
0
0
0
0
0
0
0
0
0
0
0
0
0
0
0
0
0
0
0
0
0
0
0
1.496746287e-14
9.395448453e-15
5.165484813e-15
3.357971593e-15
2.04297369e-15
1.341843178e-15
1.015928668e-15
9.013778398e-16
1.072600045e-15
1.560198668e-15
2.479501706e-15
3.431243082e-15
3.110109782e-15
2.22659942e-15
2.134376812e-16
6.789748647e-15
5.417975048e-14
7.82910065e-14
2.457937128e-14
0
0
0
0
0
0
0
0
0
0
0
0
0
0
0
0
0
0
0
0
0
0
0
0
0
0
0
0
0
0
0
0
0
0
0
0
0
0
0
0
0
6.280342768e-15
4.314353485e-15
2.926362616e-15
1.920587633e-15
1.217558976e-15
1.016164279e-15
9.209608998e-16
9.321928808e-16
1.259724222e-15
1.739296672e-15
2.328311771e-15
3.130312697e-15
3.477806872e-15
1.869278234e-15
2.41751088e-15
5.194158749e-15
1.217932178e-14
4.684245109e-14
3.044292624e-14
5.277459765e-15
0
0
0
0
0
0
0
0
0
0
0
0
0
0
0
0
0
0
0
0
0
0
0
0
0
0
0
0
0
0
0
0
0
0
0
0
0
0
0
0
3.122721733e-15
2.326322672e-15
1.665387022e-15
1.273106396e-15
1.034451999e-15
9.866525472e-16
1.021002101e-15
1.209421856e-15
1.459070368e-15
1.948245745e-15
2.501964057e-15
3.242473898e-15
3.778055089e-15
3.444525394e-15
2.228151381e-15
1.373640828e-16
5.677530612e-15
5.25743809e-14
7.049293865e-14
3.998451574e-14
5.948052273e-15
0
0
0
0
0
0
0
0
0
0
0
0
0
0
0
0
0
0
0
0
0
0
0
0
0
0
0
0
0
0
0
0
0
0
0
0
0
0
0
1.735521269e-15
1.416909448e-15
1.169363344e-15
1.040005954e-15
1.032206828e-15
1.098528559e-15
1.248961178e-15
1.492897886e-15
1.750040348e-15
2.215983192e-15
2.621477187e-15
3.55555989e-15
3.865466637e-15
3.832726957e-15
1.702601841e-15
7.192251137e-16
6.989545407e-17
1.156535573e-15
6.993600642e-14
8.732726277e-14
4.411424603e-14
2.880336988e-15
0
0
0
0
0
0
0
0
0
0
0
0
0
0
0
0
0
0
0
0
0
0
0
0
0
0
0
0
0
0
0
0
0
0
0
0
0
0
1.167240244e-15
1.065421357e-15
1.035229174e-15
1.073249904e-15
1.182028649e-15
1.339860516e-15
1.582743776e-15
1.921275937e-15
2.306615285e-15
2.745749492e-15
3.106073319e-15
3.556989817e-15
3.902608088e-15
4.020664804e-15
3.643574808e-15
2.410161287e-15
2.223315111e-15
1.601297554e-14
6.380263069e-14
9.001423415e-14
6.263478535e-14
2.222691072e-14
0
0
0
0
0
0
0
0
0
0
0
0
0
0
0
0
0
0
0
0
0
0
0
0
0
0
0
0
0
0
0
0
0
0
0
0
0
0
1.04013475e-15
1.083953397e-15
1.174919566e-15
1.292018093e-15
1.411577788e-15
1.717817507e-15
1.960265945e-15
2.48520096e-15
3.024297229e-15
3.477138782e-15
4.025676369e-15
3.931028549e-15
4.352386456e-15
4.450647966e-15
4.030880416e-15
1.708336477e-15
9.496851609e-16
1.328913068e-16
1.203670421e-15
7.472132227e-14
9.670984463e-14
6.065775577e-14
1.714449905e-14
0
0
0
0
0
0
0
0
0
0
0
0
0
0
0
0
0
0
0
0
0
0
0
0
0
0
0
0
0
0
0
0
0
0
0
0
0
1.242790167e-15
1.401525279e-15
1.573451214e-15
1.865805188e-15
2.140022241e-15
2.538962364e-15
2.913104065e-15
3.412159152e-15
4.047823142e-15
4.587629737e-15
5.180847661e-15
4.966045411e-15
5.314495051e-15
5.918517697e-15
6.41359762e-15
6.587367819e-15
7.132684741e-15
1.29252047e-14
3.467605128e-14
7.892980099e-14
1.147092102e-13
1.071320346e-13
5.890425719e-14
1.083987412e-14
0
0
0
0
0
0
0
0
0
0
0
0
0
0
0
0
0
0
0
0
0
0
0
0
0
0
0
0
0
0
0
0
0
0
0
0
1.717827394e-15
1.971393286e-15
2.400044919e-15
2.955123829e-15
3.360678318e-15
3.826359248e-15
4.313745443e-15
4.68322283e-15
5.160756106e-15
5.673275854e-15
6.210863798e-15
6.259360545e-15
6.286504406e-15
6.387617128e-15
6.215477812e-15
6.254829736e-15
5.67644849e-15
5.144117039e-15
4.327655495e-15
0
8.556247141e-14
1.186488337e-13
8.574391232e-14
3.549635767e-14
1.883660159e-16
0
0
0
0
0
0
0
0
0
0
0
0
0
0
0
0
0
0
0
0
0
0
0
0
0
0
0
0
0
0
0
0
0
0
0
2.345544428e-15
2.789427356e-15
3.397395505e-15
4.168724027e-15
4.796540786e-15
5.32489144e-15
5.741852257e-15
5.913050824e-15
6.215214412e-15
6.446832235e-15
6.675754104e-15
6.832605949e-15
6.553963826e-15
6.619934154e-15
6.413506429e-15
6.03189974e-15
4.976403517e-15
2.664127121e-15
1.35450495e-15
5.634809733e-15
1.562586684e-14
1.000330083e-13
1.216708317e-13
7.737254481e-14
2.502555055e-14
0
0
0
0
0
0
0
0
0
0
0
0
0
0
0
0
0
0
0
0
0
0
0
0
0
0
0
0
0
0
0
0
0
0
0
3.174326599e-15
3.708542056e-15
4.482409142e-15
5.145638389e-15
5.678104316e-15
6.087534836e-15
6.37056026e-15
6.403181002e-15
6.610827571e-15
6.528137863e-15
6.376708396e-15
6.193982963e-15
5.462278224e-15
5.810569878e-15
5.015907784e-15
4.457904166e-15
3.44478741e-15
1.137125182e-15
1.43199535e-16
0
0
8.926753036e-14
1.3546982e-13
1.129826159e-13
5.91195273e-14
1.015133434e-14
0
0
0
0
0
0
0
0
0
0
0
0
0
0
0
0
0
0
0
0
0
0
0
0
0
0
0
0
0
0
0
0
0
0
3.613707468e-15
4.081192757e-15
4.768646318e-15
5.290102122e-15
5.650737624e-15
5.874322188e-15
5.974676093e-15
5.842824902e-15
5.897398965e-15
5.628618979e-15
5.221019219e-15
4.831422637e-15
3.887686994e-15
3.79168366e-15
2.574325425e-15
1.877712816e-15
1.563658783e-15
3.416643624e-16
6.22191146e-17
3.432875653e-17
2.965465283e-15
1.289194446e-14
1.046665249e-13
1.330179745e-13
9.263474266e-14
3.708282466e-14
2.854734213e-16
0
0
0
0
0
0
0
0
0
0
0
0
0
0
0
0
0
0
0
0
0
0
0
0
0
0
0
0
0
0
0
0
0
3.450284854e-15
3.954526737e-15
4.383564446e-15
4.713245794e-15
4.95569453e-15
5.013013847e-15
5.043426788e-15
4.982166683e-15
4.74133941e-15
4.33286922e-15
3.842791029e-15
3.304927068e-15
2.182475608e-15
1.142898501e-15
8.212944814e-16
5.306686203e-16
9.500708365e-16
1.013071029e-15
1.152095959e-16
4.683107099e-17
0
0
9.885299129e-14
1.631838917e-13
1.887880268e-13
8.89842395e-14
2.416302802e-14
0
0
0
0
0
0
0
0
0
0
0
0
0
0
0
0
0
0
0
0
0
0
0
0
0
0
0
0
0
0
0
0
0
2.791047311e-15
3.091197863e-15
3.328346954e-15
3.483316074e-15
3.587232715e-15
3.554745115e-15
3.545192872e-15
3.49109872e-15
3.279025492e-15
2.990369125e-15
2.67110974e-15
2.209485453e-15
1.335436766e-15
3.893881651e-16
8.14071759e-16
1.988507256e-16
1.552737183e-16
8.980696767e-16
9.66009286e-17
8.198568077e-17
2.896551961e-16
5.287968203e-15
1.701150854e-14
1.148823381e-13
1.497010644e-13
1.068212298e-13
4.877036617e-14
5.747053474e-15
0
0
0
0
0
0
0
0
0
0
0
0
0
0
0
0
0
0
0
0
0
0
0
0
0
0
0
0
0
0
0
0
1.768958543e-15
1.89997987e-15
2.000808856e-15
2.087306702e-15
2.068182063e-15
2.009403067e-15
2.001679224e-15
1.983579729e-15
1.856267846e-15
1.709968805e-15
1.580136431e-15
1.337277513e-15
8.011775623e-16
1.908767797e-16
7.86954845e-16
1.958125473e-16
1.631999815e-16
3.860294854e-16
0
7.222626258e-17
5.712846363e-17
0
0
1.035501758e-13
1.630001032e-13
1.533808872e-13
9.390545913e-14
3.330324889e-14
1.66071812e-16
0
0
0
0
0
0
0
0
0
0
0
0
0
0
0
0
0
0
0
0
0
0
0
0
0
0
0
0
0
0
0
7.933405893e-16
8.252846448e-16
8.399319745e-16
8.644507289e-16
8.043911395e-16
7.806297596e-16
7.653402082e-16
8.086241089e-16
7.587051494e-16
7.13549853e-16
7.375904556e-16
7.227050168e-16
4.391672327e-16
1.093891306e-16
7.753560239e-16
1.861994668e-16
1.594474568e-16
3.443433819e-16
0
8.048467295e-17
4.735623629e-16
2.672790801e-15
1.210124322e-14
2.547308076e-14
1.306871298e-13
1.63916458e-13
1.228507076e-13
6.235288207e-14
1.41170914e-14
0
0
0
0
0
0
0
0
0
0
0
0
0
0
0
0
0
0
0
0
0
0
0
0
0
0
0
0
0
0
0
1.740959695e-16
1.741341066e-16
2.053247077e-16
1.81157153e-16
9.799889019e-17
8.311832577e-17
3.124222955e-17
1.346679234e-16
1.328367139e-16
1.177448208e-16
1.679167404e-16
3.629472156e-16
1.924826417e-16
5.808605703e-17
7.343091077e-16
1.887715083e-16
1.167890002e-16
3.838945584e-17
3.496921695e-16
5.115080423e-17
7.799052398e-17
2.302152611e-16
3.588719536e-16
0
1.137377523e-13
1.780704855e-13
1.730574187e-13
1.087632768e-13
4.309466398e-14
1.867283238e-15
0
0
0
0
0
0
0
0
0
0
0
0
0
0
0
0
0
0
0
0
0
0
0
0
0
0
0
0
0
0
1.02137042e-18
1.456334941e-17
1.675137643e-17
0
0
0
2.617824892e-17
7.802536811e-18
6.141705208e-18
0
0
1.939385571e-16
6.152284769e-17
1.681989202e-17
7.070688364e-16
0
1.075191898e-16
1.528425108e-16
3.760952847e-16
2.874276604e-17
7.542877111e-17
7.412693475e-17
0
0
3.763910835e-14
1.406719647e-13
1.757581564e-13
1.350782904e-13
7.249154988e-14
1.99796507e-14
0
0
0
0
0
0
0
0
0
0
0
0
0
0
0
0
0
0
0
0
0
0
0
0
0
0
0
0
0
0
0
0
0
0
0
0
2.967942279e-17
0
0
0
0
9.88244324e-17
3.655857499e-17
1.0311812e-17
7.009498123e-16
0
1.071665951e-16
1.545985707e-16
3.539207099e-16
2.213812559e-17
6.912183414e-17
5.818403423e-17
0
0
0
1.214521549e-13
1.879113484e-13
1.820632743e-13
1.177665809e-13
4.982050333e-14
5.788820205e-15
0
0
0
0
0
0
0
0
0
0
0
0
0
0
0
0
0
0
0
0
0
0
0
0
0
0
0
0
0
0
0
0
0
0
1.327669089e-17
0
0
0
0
0
8.533823081e-17
0
0
0
1.788997363e-16
1.44691955e-16
1.694672907e-16
3.190907181e-16
4.870242053e-17
8.908655621e-17
7.963219527e-17
6.235544583e-17
0
0
9.627664748e-14
1.729970072e-13
1.958086283e-13
1.497771755e-13
8.221129188e-14
2.554767857e-14
8.282406406e-17
0
0
0
0
0
0
0
0
0
0
0
0
0
0
0
0
0
0
0
0
0
0
0
0
0
0
0
0
0
0
0
0
0
9.656666124e-18
0
0
0
0
0
9.417970908e-17
0
5.031331936e-17
3.582618257e-16
1.254253293e-15
2.135905254e-15
3.341096979e-15
4.603788135e-15
5.465781744e-15
6.815594002e-15
7.383635775e-15
7.18957209e-15
6.390390625e-15
1.019427813e-14
1.519437049e-14
1.420582188e-13
2.101016919e-13
2.1147636e-13
1.303364096e-13
5.589804675e-14
8.818881332e-15
0
0
0
0
0
0
0
0
0
0
0
0
0
0
0
0
0
0
0
0
0
0
0
0
0
0
0
0
0
0
0
0
1.309421836e-17
0
0
0
0
0
2.383182641e-16
8.348272405e-16
1.529151856e-15
2.692855672e-15
4.073348701e-15
6.138995118e-15
8.204129951e-15
9.851154499e-15
1.096559801e-14
9.522442429e-15
1.393780758e-14
1.510818436e-14
1.456821377e-14
1.155868048e-14
6.298476429e-15
0
1.177787035e-13
1.974880889e-13
2.137711495e-13
1.585774487e-13
8.629160019e-14
2.760498996e-14
1.866564507e-16
0
0
0
0
0
0
0
0
0
0
0
0
0
0
0
0
0
0
0
0
0
0
0
0
0
0
0
0
0
0
0
8.317093993e-18
3.68310269e-17
9.159543262e-17
1.815840821e-16
3.272190861e-16
1.112585995e-15
1.686363679e-15
2.961465477e-15
4.520345872e-15
6.647646777e-15
9.076705868e-15
1.22430364e-14
1.515152641e-14
1.810646658e-14
2.020532479e-14
1.987227211e-14
2.361574475e-14
2.453130909e-14
2.335759747e-14
2.050684544e-14
1.736465219e-14
2.060060778e-14
2.752571699e-14
1.551898795e-13
2.198289524e-13
2.234381296e-13
1.315509333e-13
5.529928722e-14
8.653706055e-15
0
0
0
0
0
0
0
0
0
0
0
0
0
0
0
0
0
0
0
0
0
0
0
0
0
0
0
0
0
0
4.346646932e-17
1.01717047e-16
2.225444376e-16
4.068153275e-16
6.334883148e-16
1.024007481e-15
2.022499631e-15
3.298129923e-15
4.903962351e-15
6.966630514e-15
9.374396158e-15
1.191946196e-14
1.55677701e-14
1.919629129e-14
2.26875168e-14
2.529830132e-14
2.689755692e-14
2.75701275e-14
2.689619888e-14
2.440453866e-14
1.996691356e-14
1.374482124e-14
1.020477837e-14
4.251046461e-16
1.253193437e-13
2.028314223e-13
2.129290105e-13
1.521708967e-13
7.961505763e-14
2.399831273e-14
1.378199635e-16
0
0
0
0
0
0
0
0
0