/*--------------------------------*- C++ -*----------------------------------*\
  =========                 |
  \\      /  F ield         | OpenFOAM: The Open Source CFD Toolbox
   \\    /   O peration     | Website:  https://openfoam.org
    \\  /    A nd           | Version:  10
     \\/     M anipulation  |
\*---------------------------------------------------------------------------*/
FoamFile
{
    format      ascii;
    class       volScalarField;
    location    "0.02499901733";
    object      CH2O;
}
// * * * * * * * * * * * * * * * * * * * * * * * * * * * * * * * * * * * * * //

dimensions      [0 0 0 0 0 0 0];

internalField   nonuniform List<scalar> 
5170
(
7.659237022e-09
7.646083554e-09
7.558834638e-09
6.940477373e-09
5.30536922e-10
1.526658804e-08
1.522547115e-08
1.503963517e-08
1.409275684e-08
8.721651441e-09
2.282913862e-08
2.276047579e-08
2.248810666e-08
2.135485671e-08
1.690561648e-08
3.033155026e-08
3.02381109e-08
2.990041137e-08
2.869034525e-08
2.514023702e-08
3.777006003e-08
3.76557819e-08
3.727649318e-08
3.607918677e-08
3.341886753e-08
4.514062353e-08
4.501313585e-08
4.46176959e-08
4.351467486e-08
4.174059659e-08
5.24439872e-08
5.23097797e-08
5.192323718e-08
5.099634408e-08
5.01040522e-08
5.968633948e-08
5.955430445e-08
5.919970442e-08
5.851828015e-08
5.850669403e-08
6.687192639e-08
6.675016125e-08
6.645329825e-08
6.608105486e-08
6.694526745e-08
7.400835128e-08
7.390244274e-08
7.368166614e-08
7.368832702e-08
7.541928691e-08
8.110098374e-08
8.101615803e-08
8.088522019e-08
8.134173792e-08
8.392552935e-08
8.815061329e-08
8.809385441e-08
8.808174317e-08
8.903848437e-08
9.245480003e-08
9.51602069e-08
9.513903057e-08
9.528185852e-08
9.677964694e-08
1.009998761e-07
1.021342547e-07
1.021561741e-07
1.024864275e-07
1.045670686e-07
1.095554226e-07
1.090765488e-07
1.091504012e-07
1.096976677e-07
1.123989069e-07
1.181143694e-07
1.159882378e-07
1.161238506e-07
1.169284033e-07
1.202787304e-07
1.266583555e-07
1.228718643e-07
1.230804192e-07
1.241731107e-07
1.281926235e-07
1.351957037e-07
1.29730313e-07
1.300257562e-07
1.314552689e-07
1.361511148e-07
1.436983729e-07
1.365659333e-07
1.369652736e-07
1.387906207e-07
1.442054452e-07
1.523567226e-07
1.43472823e-07
1.443864016e-07
1.493725513e-07
1.727154418e-07
2.553140463e-07
8.387166664e-13
7.193086529e-13
6.64429898e-13
6.689830537e-13
7.221060597e-13
4.395949046e-13
4.547248216e-13
3.61349414e-13
3.560944679e-13
2.929062417e-13
1.845455091e-13
2.512943312e-13
1.960925812e-13
1.952731995e-13
1.547235894e-13
1.025660219e-13
1.429538775e-13
1.219222172e-13
1.133054517e-13
8.679213556e-14
0
8.899719614e-14
8.318725716e-14
5.766344446e-14
0
0
0
7.039174838e-14
1.406681006e-12
0
0
0
0
5.519947316e-10
2.488114038e-09
2.717335353e-08
7.942729178e-10
0
0
1.490184414e-07
1.551696508e-07
4.77224033e-09
0
8.921708806e-08
7.469736802e-09
2.657539084e-08
1.130906936e-07
1.004059351e-07
4.277293268e-08
2.376702251e-09
2.869263464e-09
2.829066995e-08
2.667948491e-08
0
2.069336544e-09
2.275536534e-09
0
0
1.215147184e-09
4.801352663e-10
7.3169393e-10
4.208301176e-10
1.258693349e-09
9.208907125e-10
5.020411735e-09
3.801800325e-09
7.749619163e-10
4.181677599e-10
2.062617756e-09
5.377009633e-09
5.891474938e-09
2.319150652e-09
1.866609183e-09
4.07317062e-09
4.901414789e-09
5.546330253e-09
4.429556194e-09
4.089062451e-09
5.065179179e-09
4.473102503e-09
4.224577105e-09
5.004298701e-09
4.925694712e-09
4.743230047e-09
4.041877107e-09
3.402863765e-09
4.343893429e-09
4.397760489e-09
3.954026653e-09
3.582877027e-09
1.324701174e-08
6.56804351e-09
4.211827506e-09
3.479085206e-09
3.150190385e-09
1.173214284e-06
3.391661587e-07
4.551573732e-08
1.080378218e-08
4.207558098e-10
1.523510173e-07
1.700461628e-07
4.543453521e-07
4.646891795e-06
5.607077311e-05
1.71289743e-07
2.595198075e-07
1.441703578e-06
1.410139005e-05
0.0001041521608
2.171299806e-07
5.014483026e-07
3.669997649e-06
2.882386904e-05
0.0001467693018
3.211211501e-07
1.027298764e-06
7.683600805e-06
4.802314433e-05
0.0001802098045
5.396703007e-07
2.049892541e-06
1.41172941e-05
7.009484004e-05
0.000204347697
9.749776535e-07
3.929802882e-06
2.352441505e-05
9.297411286e-05
0.0002231925205
1.791051795e-06
7.101661492e-06
3.591085766e-05
0.0001155113649
0.0002408094551
3.242359329e-06
1.211936193e-05
5.102257971e-05
0.0001371803683
0.0002571842003
5.737924154e-06
1.962113689e-05
6.830172241e-05
0.0001573994358
0.0002710333455
9.850264945e-06
2.998141135e-05
8.702074289e-05
0.000176152552
0.000282623561
1.641619527e-05
4.358441403e-05
0.0001064898775
0.0001934100488
0.0002924082103
2.750221872e-05
6.06753446e-05
0.0001261481825
0.0002096921452
0.0003015651487
4.351840449e-05
8.053741974e-05
0.0001459463092
0.0002252437877
0.0003101711043
6.55618044e-05
0.0001032328087
0.0001662115787
0.0002404376223
0.0003184189943
9.388840781e-05
0.0001288712812
0.0001874876022
0.0002560243898
0.0003273557036
0.0001263819622
0.0001574299698
0.0002106040707
0.000272976745
0.0003380930871
0.0001640775738
0.0001904702389
0.0002374092061
0.0002937166043
0.0003530121124
0.0002062541114
0.0002285826703
0.0002705007323
0.0003226203541
0.0003791646486
0.0002561674684
0.0002768195474
0.0003173580601
0.0003704648304
0.0004310168813
0.0003246957535
0.0003452839249
0.0003868080263
0.0004429885779
0.0005091622944
0.000417815543
0.0004358410901
0.0004722609536
0.0005213813607
0.000578811892
0.0005015828666
0.0005125516539
0.0005351762496
0.0005658199479
0.0006008281907
0.0005283563484
0.0005330626017
0.0005425555121
0.0005548087303
0.0005676176238
0.0004968581788
0.0004976495855
0.000498824978
0.000499461135
0.0004985461131
0.000431731216
0.0004307737288
0.0004283128317
0.0004240718908
0.0004177596648
0.0003574233464
0.0003559747017
0.000352597944
0.0003472609467
0.0003399716676
0.0002920633668
0.0002907052853
0.0002875680832
0.0002827202036
0.0002762618379
0.0002371406376
0.0002360134332
0.0002334347388
0.0002294878561
0.0002242828808
0.0001925059878
0.0001916227272
0.0001896129599
0.0001865514507
0.0001825308459
0.0001566488219
0.0001559778349
0.0001544554492
0.0001521394538
0.0001491019263
0.0001279084444
0.0001274069097
0.0001262703119
0.0001245422103
0.0001222741412
0.0001048345586
0.00010446318
0.0001036214832
0.0001023398733
0.0001006551434
8.626130935e-05
8.598669163e-05
8.536384118e-05
8.44140069e-05
8.316296526e-05
7.129810672e-05
7.109452057e-05
7.063233439e-05
6.992637991e-05
6.899468192e-05
5.928861606e-05
5.913671703e-05
5.879168132e-05
5.826391189e-05
5.756600721e-05
4.972809709e-05
4.96135435e-05
4.935335488e-05
4.895496994e-05
4.842723429e-05
4.218926365e-05
4.21014909e-05
4.190236028e-05
4.159733554e-05
4.119266999e-05
3.628754116e-05
3.621893787e-05
3.606361898e-05
3.582574874e-05
3.550980283e-05
3.167890742e-05
3.162408519e-05
3.150033517e-05
3.131094617e-05
3.105917528e-05
2.806951354e-05
2.802473665e-05
2.792400531e-05
2.777001153e-05
2.756516836e-05
2.521973006e-05
2.518240252e-05
2.509871728e-05
2.49709309e-05
2.480086736e-05
2.294161097e-05
2.290991208e-05
2.283907547e-05
2.27310374e-05
2.258720791e-05
2.109095604e-05
2.106363077e-05
2.100274732e-05
2.090999473e-05
2.078648951e-05
1.956151723e-05
1.95376554e-05
1.948462032e-05
1.940390441e-05
1.92963978e-05
1.827332399e-05
1.825226594e-05
1.820555597e-05
1.81345165e-05
1.803988455e-05
1.716785689e-05
1.714912005e-05
1.710762466e-05
1.704455413e-05
1.696052371e-05
1.620282141e-05
1.618604055e-05
1.614891348e-05
1.609250335e-05
1.601733101e-05
1.534680096e-05
1.533170396e-05
1.529834068e-05
1.524766878e-05
1.518013645e-05
1.457965325e-05
1.456604024e-05
1.453597747e-05
1.449032751e-05
1.442947635e-05
1.388604123e-05
1.387373236e-05
1.384655681e-05
1.380528397e-05
1.375025591e-05
1.325302843e-05
1.324185154e-05
1.321720618e-05
1.317979485e-05
1.312990766e-05
1.267617053e-05
1.266603012e-05
1.264366417e-05
1.26097093e-05
1.256441992e-05
1.21467468e-05
1.213752639e-05
1.211719486e-05
1.208632847e-05
1.2045149e-05
1.165956682e-05
1.165116231e-05
1.163263406e-05
1.160450658e-05
1.156697478e-05
1.121033331e-05
1.120265154e-05
1.118572075e-05
1.116001683e-05
1.112570938e-05
1.079544135e-05
1.078839102e-05
1.077285577e-05
1.074927079e-05
1.071778505e-05
1.041182932e-05
1.040532831e-05
1.039100771e-05
1.036926774e-05
1.034024046e-05
1.005661427e-05
1.005058794e-05
1.003731775e-05
1.001717469e-05
9.990277085e-06
9.726155304e-06
9.720540872e-06
9.708183095e-06
9.689429691e-06
9.664390537e-06
9.415624815e-06
9.41037144e-06
9.398810885e-06
9.381267095e-06
9.357837604e-06
9.118778048e-06
9.113855204e-06
9.10302225e-06
9.086580139e-06
9.064615424e-06
8.829410797e-06
8.824793265e-06
8.814631269e-06
8.799206388e-06
8.778598454e-06
8.543405587e-06
8.539094621e-06
8.529604308e-06
8.515198099e-06
8.495956464e-06
8.260271853e-06
8.25625158e-06
8.247396936e-06
8.233951073e-06
8.215987014e-06
7.97922591e-06
7.975511131e-06
7.967322204e-06
7.954879392e-06
7.938248741e-06
7.70413768e-06
7.700741068e-06
7.693253427e-06
7.681882287e-06
7.66667157e-06
7.441414558e-06
7.438297499e-06
7.431415569e-06
7.420947389e-06
7.406947133e-06
7.194133334e-06
7.191272672e-06
7.184954e-06
7.175336198e-06
7.162460551e-06
6.965178276e-06
6.962496035e-06
6.956573323e-06
6.947559907e-06
6.935493868e-06
6.770498033e-06
6.767953808e-06
6.762336452e-06
6.753788547e-06
6.742348054e-06
0.0001745495175
0.0002390801755
0.0002801816434
0.0003014385275
0.0003120375653
0.0003210545793
0.0003323975032
0.0003426380536
0.0003492578851
0.0003536682684
0.0003568169238
0.0003605365984
0.0003642336991
0.0003674502707
0.000372068768
0.0003789729032
0.0003907354143
0.0004158845924
0.0004727548251
0.0005566813606
0.0006196939663
0.000624732053
0.0005754306144
0.0004968645003
0.0004126006076
0.0003343344885
0.0002713724893
0.0002203681194
0.0001795121612
0.0001468213779
0.0001205700375
9.938825849e-05
8.222153482e-05
6.829296525e-05
5.7039622e-05
4.802811828e-05
4.088526413e-05
3.526831618e-05
3.086532309e-05
2.7406185e-05
2.466782172e-05
2.247384531e-05
2.068851088e-05
1.921063332e-05
1.796403635e-05
1.689291634e-05
1.59566737e-05
1.512551608e-05
1.438016494e-05
1.370558713e-05
1.308935163e-05
1.252756571e-05
1.201160175e-05
1.153636746e-05
1.10977013e-05
1.069205255e-05
1.031649321e-05
9.968248861e-06
9.643867393e-06
9.338617141e-06
9.046583927e-06
8.76168159e-06
8.480181992e-06
8.201269271e-06
7.924638115e-06
7.654237592e-06
7.395517726e-06
7.151933192e-06
6.92562255e-06
6.732988319e-06
0.000305535939
2.341700241e-05
7.149335778e-07
1.09663095e-07
1.398033557e-08
0.0004268982227
0.0005740129371
3.309004182e-05
1.004308448e-06
2.700019834e-07
0.0004829756316
0.0006752140807
6.225941473e-05
3.311462781e-06
1.2747995e-06
0.0004873990556
0.0006134314601
0.0001337200171
1.035047132e-05
1.689507446e-06
0.0004764287241
0.0005782965539
0.0002738012546
2.757610238e-05
2.252428442e-06
0.0004708380074
0.0005801624833
0.0004014720541
5.038539683e-05
4.801728942e-06
0.0004726538954
0.0005943331161
0.0004900574839
7.144335543e-05
8.167584134e-06
0.0004723145523
0.000588534598
0.0005152856384
9.94154391e-05
1.304652088e-05
0.0004663951997
0.0005700765036
0.0005182477691
0.000185371837
2.704241716e-05
0.0004588013188
0.0005527423491
0.0005188712016
0.0002353304255
3.863252755e-05
0.0004511581222
0.0005397402655
0.0005199472407
0.0002744065943
4.956956621e-05
0.0004466192199
0.0005288910009
0.0005181387048
0.0003120622172
6.313615686e-05
0.000443022199
0.0005170621762
0.000514484862
0.0003518151413
0.0001174168328
0.0004384108876
0.0005075597021
0.000511787691
0.0003803337162
0.000160671451
0.0004366882232
0.0005027739259
0.0005106076692
0.0003987845603
0.0001886272732
0.0004380849584
0.0005009233661
0.0005105595702
0.0004134230131
0.0002121349636
0.0004451652409
0.0005043235557
0.0005151631376
0.0004230161998
0.0002239141387
0.0004681400959
0.0005261725254
0.0005320737013
0.0004250538989
0.0002101506991
0.0005322351449
0.0006115968293
0.0006381235767
0.0005073334917
0.0001561744965
0.0006256001843
0.000738443445
0.0008535385303
0.0009486496729
0.0009861804627
0.0006794562597
0.0007718500154
0.0008568885044
0.0009181693387
0.0009203137059
0.0006603827362
0.0007041761114
0.0007262842821
0.0007152090498
0.0006614081078
0.000588465197
0.0005937615061
0.0005787874877
0.0005414763501
0.0004836467465
0.0004965316615
0.0004837278758
0.000457241278
0.0004184093414
0.0003704777777
0.0004071151616
0.00038951306
0.0003631786677
0.0003300454295
0.0002926226838
0.0003277978841
0.0003112214224
0.0002890428023
0.0002629477981
0.0002347060334
0.000265566021
0.0002518501853
0.0002342812375
0.0002141769256
0.0001927808894
0.0002156583333
0.0002048813792
0.0001913412811
0.000176017449
0.0001597868577
0.0001758562585
0.0001675987094
0.000157294883
0.0001456612253
0.000133326359
0.0001440538926
0.0001378173641
0.0001300276036
0.0001212088343
0.0001118152823
0.0001185058541
0.0001138316412
0.0001079650844
0.0001012847779
9.411889062e-05
9.786117981e-05
9.436994854e-05
8.995430006e-05
8.48874053e-05
7.940770647e-05
8.10946441e-05
7.848567968e-05
7.515573845e-05
7.130302715e-05
6.710093497e-05
6.745893395e-05
6.550244938e-05
6.298243633e-05
6.004304409e-05
5.681107557e-05
5.641666028e-05
5.493974652e-05
5.302275727e-05
5.077063398e-05
4.827607741e-05
4.755499762e-05
4.642801131e-05
4.495806503e-05
4.322137057e-05
4.128561911e-05
4.051737079e-05
3.964391152e-05
3.850339414e-05
3.715098023e-05
3.563585553e-05
3.497428812e-05
3.428403289e-05
3.338519795e-05
3.231785546e-05
3.111782347e-05
3.06238629e-05
3.006675745e-05
2.934569012e-05
2.848962485e-05
2.752472563e-05
2.720307732e-05
2.67439048e-05
2.615430842e-05
2.545541345e-05
2.466648153e-05
2.449349908e-05
2.410752336e-05
2.361624672e-05
2.303523188e-05
2.237899204e-05
2.232180183e-05
2.199165965e-05
2.15752812e-05
2.108429003e-05
2.05295118e-05
2.055441438e-05
2.026821697e-05
1.991002363e-05
1.948868133e-05
1.901249195e-05
1.909125158e-05
1.884005307e-05
1.85277781e-05
1.816127222e-05
1.774703453e-05
1.785699487e-05
1.763435299e-05
1.735912379e-05
1.703667647e-05
1.667215272e-05
1.679646013e-05
1.65976087e-05
1.635283998e-05
1.606646248e-05
1.574261694e-05
1.586939007e-05
1.569065794e-05
1.547137077e-05
1.521524471e-05
1.49257081e-05
1.504641924e-05
1.4885336e-05
1.468826466e-05
1.445814715e-05
1.419788276e-05
1.430839542e-05
1.416279844e-05
1.398495956e-05
1.377726869e-05
1.354220625e-05
1.364031088e-05
1.350825949e-05
1.334719209e-05
1.3159153e-05
1.29462093e-05
1.302986954e-05
1.29098619e-05
1.276365149e-05
1.259299519e-05
1.239966524e-05
1.247336896e-05
1.236420976e-05
1.223131159e-05
1.207617419e-05
1.1900309e-05
1.196214405e-05
1.186267793e-05
1.174164016e-05
1.160030773e-05
1.143997825e-05
1.149113893e-05
1.140030333e-05
1.128981104e-05
1.116074782e-05
1.101421508e-05
1.105621567e-05
1.097300862e-05
1.087182462e-05
1.075359391e-05
1.061925768e-05
1.065384724e-05
1.057732518e-05
1.048432744e-05
1.037564036e-05
1.025207428e-05
1.028114448e-05
1.021046836e-05
1.012463887e-05
1.002433148e-05
9.910248329e-06
9.935368316e-06
9.869770243e-06
9.79019422e-06
9.697226626e-06
9.591492145e-06
9.613150725e-06
9.551995482e-06
9.477870421e-06
9.391260276e-06
9.29270414e-06
9.309800387e-06
9.252518458e-06
9.183153407e-06
9.102123035e-06
9.009874397e-06
9.019519859e-06
8.965731101e-06
8.900590407e-06
8.824477858e-06
8.737784516e-06
8.736307815e-06
8.68582841e-06
8.624666243e-06
8.553178464e-06
8.47175971e-06
8.456586757e-06
8.409531017e-06
8.352427581e-06
8.285438318e-06
8.208970919e-06
8.179327776e-06
8.135396376e-06
8.081924242e-06
8.019233259e-06
7.947670966e-06
7.90443154e-06
7.863804988e-06
7.814243621e-06
7.756099308e-06
7.689750917e-06
7.635871268e-06
7.598649869e-06
7.553075334e-06
7.499491562e-06
7.438134558e-06
7.3787014e-06
7.344602636e-06
7.302778624e-06
7.253476374e-06
7.196925774e-06
7.136427313e-06
7.104888461e-06
7.066080817e-06
7.020218939e-06
6.967486457e-06
6.911056278e-06
6.881452408e-06
6.845005917e-06
6.801972561e-06
6.752568639e-06
6.719163964e-06
6.691139644e-06
6.656726836e-06
6.616154764e-06
6.569654238e-06
2.559828122e-09
3.821438761e-08
1.035439758e-08
3.601699222e-09
2.125598461e-09
1.66346279e-09
1.48800152e-09
1.421502748e-09
1.398087719e-09
1.390167897e-09
1.386833703e-09
1.384149276e-09
1.381490757e-09
1.379362117e-09
1.378694311e-09
1.380694719e-09
1.378850572e-09
1.373109713e-09
1.369950808e-09
1.368167966e-09
1.366931887e-09
1.365883989e-09
1.364908482e-09
1.363994921e-09
1.363153969e-09
1.362383356e-09
1.361674451e-09
1.361025385e-09
1.360425783e-09
1.359865731e-09
1.359342731e-09
1.358851984e-09
1.358394673e-09
1.357969778e-09
1.35757636e-09
1.357213896e-09
1.356880772e-09
1.356573764e-09
1.356286956e-09
1.356022172e-09
1.35577008e-09
1.355529302e-09
1.355300924e-09
1.355079403e-09
1.354874874e-09
1.354702162e-09
1.354548517e-09
1.354413102e-09
1.354285684e-09
1.354174338e-09
1.354071613e-09
1.353978304e-09
1.35388886e-09
1.35379392e-09
1.353492935e-09
1.351580677e-09
1.34026359e-09
1.289988925e-09
1.12081969e-09
8.958111413e-10
5.077116705e-08
1.843453931e-07
4.2397372e-08
1.274838412e-08
7.525688018e-09
6.167035871e-09
5.698045211e-09
5.512263078e-09
5.437681816e-09
5.406578739e-09
5.391552048e-09
5.3809686e-09
5.37163728e-09
5.363605369e-09
5.359142727e-09
5.361561412e-09
5.355920505e-09
5.340485702e-09
5.331718973e-09
5.326628095e-09
5.323018412e-09
5.319833302e-09
5.31683853e-09
5.314099121e-09
5.311676915e-09
5.309504969e-09
5.30752824e-09
5.305778308e-09
5.3041764e-09
5.302727281e-09
5.301410939e-09
5.300179738e-09
5.299085114e-09
5.298099423e-09
5.297216539e-09
5.296431704e-09
5.295776043e-09
5.295202771e-09
5.294648421e-09
5.294167322e-09
5.293736174e-09
5.293306793e-09
5.292939797e-09
5.292644594e-09
5.292327095e-09
5.292094525e-09
5.291802266e-09
5.291621439e-09
5.291429054e-09
5.291344227e-09
5.291257433e-09
5.291174652e-09
5.291088435e-09
5.291050701e-09
5.290524442e-09
5.287359696e-09
5.272341595e-09
5.221101352e-09
5.111216417e-09
5.025660673e-09
2.38063235e-07
2.657493479e-07
7.261649683e-08
2.222396567e-08
1.360516587e-08
1.149665397e-08
1.078477622e-08
1.04899697e-08
1.035439508e-08
1.028830077e-08
1.025289023e-08
1.022997215e-08
1.021174872e-08
1.01960703e-08
1.018487809e-08
1.018272184e-08
1.017238229e-08
1.015097246e-08
1.013855472e-08
1.013100267e-08
1.012517669e-08
1.011969799e-08
1.011440166e-08
1.010949011e-08
1.010509404e-08
1.010117763e-08
1.00976506e-08
1.009452307e-08
1.009172167e-08
1.008923683e-08
1.008702216e-08
1.008505702e-08
1.008339196e-08
1.008194701e-08
1.008071649e-08
1.007969216e-08
1.007884788e-08
1.007810278e-08
1.007741135e-08
1.007683318e-08
1.007637212e-08
1.007599764e-08
1.007573291e-08
1.007562108e-08
1.007550504e-08
1.007549791e-08
1.007541667e-08
1.00755098e-08
1.007555551e-08
1.007576274e-08
1.00760106e-08
1.007634294e-08
1.007654874e-08
1.007698149e-08
1.007700617e-08
1.007603175e-08
1.007202097e-08
1.006976445e-08
1.01147541e-08
1.020419302e-08
8.218432629e-07
3.828469273e-07
1.60737582e-07
3.751926072e-08
1.975290544e-08
1.618484072e-08
1.505884229e-08
1.457796467e-08
1.43408866e-08
1.421910131e-08
1.415464756e-08
1.411814121e-08
1.409431786e-08
1.407641631e-08
1.406365812e-08
1.405938068e-08
1.404964042e-08
1.403225111e-08
1.402318257e-08
1.401809012e-08
1.401378226e-08
1.40091488e-08
1.400429849e-08
1.399963653e-08
1.399542371e-08
1.399168043e-08
1.398835559e-08
1.398544449e-08
1.398289312e-08
1.398068592e-08
1.397877249e-08
1.397713719e-08
1.397582729e-08
1.397478452e-08
1.397395241e-08
1.397335709e-08
1.397294439e-08
1.397261525e-08
1.397232535e-08
1.397214072e-08
1.397207247e-08
1.397209283e-08
1.397221956e-08
1.397249837e-08
1.397283302e-08
1.397325962e-08
1.397364876e-08
1.397416162e-08
1.397461984e-08
1.397525677e-08
1.39759101e-08
1.397669644e-08
1.397732314e-08
1.397828721e-08
1.397922953e-08
1.398167039e-08
1.398990368e-08
1.402614092e-08
1.414545375e-08
1.428638221e-08
2.176569925e-06
9.098669142e-07
6.637712621e-07
1.559307907e-07
3.944130682e-08
2.272755905e-08
1.888814124e-08
1.753246096e-08
1.693109207e-08
1.664302591e-08
1.650382274e-08
1.643735375e-08
1.640560585e-08
1.638984621e-08
1.638277444e-08
1.63834954e-08
1.638187927e-08
1.637646331e-08
1.63765962e-08
1.6378352e-08
1.637916212e-08
1.637846431e-08
1.637680311e-08
1.637483532e-08
1.637296907e-08
1.637132049e-08
1.636990248e-08
1.636872346e-08
1.636776014e-08
1.636700614e-08
1.636643058e-08
1.636602556e-08
1.636581648e-08
1.63657788e-08
1.636586719e-08
1.636610144e-08
1.636644091e-08
1.636681937e-08
1.636720811e-08
1.636765625e-08
1.636817009e-08
1.636871963e-08
1.636932447e-08
1.637001769e-08
1.637074813e-08
1.63715291e-08
1.637230335e-08
1.637312691e-08
1.637390861e-08
1.637481025e-08
1.637571299e-08
1.637672644e-08
1.637762359e-08
1.637885188e-08
1.638040486e-08
1.638454891e-08
1.639707244e-08
1.643884151e-08
1.65430834e-08
1.664868747e-08
2.52021412e-06
2.053361357e-06
1.495582437e-06
7.682613561e-07
1.37494192e-07
4.064352482e-08
2.467382772e-08
2.035544514e-08
1.87262213e-08
1.801993046e-08
1.770506906e-08
1.756822666e-08
1.751194193e-08
1.749118406e-08
1.748673425e-08
1.749199088e-08
1.749859271e-08
1.750473953e-08
1.75142529e-08
1.752338652e-08
1.752993958e-08
1.7533776e-08
1.75358033e-08
1.753692211e-08
1.753770673e-08
1.753838743e-08
1.753905255e-08
1.753974367e-08
1.754046196e-08
1.754121814e-08
1.754200428e-08
1.754282269e-08
1.754368664e-08
1.754459313e-08
1.754552149e-08
1.754648318e-08
1.754746124e-08
1.754843103e-08
1.754938217e-08
1.755034182e-08
1.75513124e-08
1.755227141e-08
1.755323296e-08
1.755420837e-08
1.755517206e-08
1.755614508e-08
1.755711244e-08
1.755809032e-08
1.755903033e-08
1.756000675e-08
1.756096326e-08
1.75619814e-08
1.75629444e-08
1.756416528e-08
1.756584619e-08
1.756982077e-08
1.758042918e-08
1.761016906e-08
1.767224195e-08
1.772928769e-08
1.490822586e-06
3.115092875e-06
2.665685819e-06
2.288842391e-06
6.837968799e-07
1.149996108e-07
3.957095524e-08
2.515752174e-08
2.078381359e-08
1.908707333e-08
1.837941453e-08
1.808645073e-08
1.79713076e-08
1.793093933e-08
1.79219594e-08
1.792785321e-08
1.793880303e-08
1.795178506e-08
1.796741494e-08
1.798193982e-08
1.799310098e-08
1.80007154e-08
1.800578271e-08
1.800938277e-08
1.801222897e-08
1.801467905e-08
1.801688736e-08
1.801892913e-08
1.802084234e-08
1.802265385e-08
1.802437474e-08
1.802601914e-08
1.802760316e-08
1.802913305e-08
1.803060717e-08
1.803203579e-08
1.803341759e-08
1.803474944e-08
1.803603214e-08
1.803727878e-08
1.803849265e-08
1.803966483e-08
1.80408047e-08
1.804191582e-08
1.804298908e-08
1.804403674e-08
1.804505724e-08
1.804606192e-08
1.804703421e-08
1.804799441e-08
1.804892551e-08
1.804987509e-08
1.805081084e-08
1.805193579e-08
1.805350514e-08
1.805670434e-08
1.806403154e-08
1.808119865e-08
1.811183095e-08
1.81377563e-08
1.297197536e-06
2.872591071e-06
4.477787358e-06
4.361161455e-06
2.535693027e-06
4.752449228e-07
8.974167905e-08
3.680049061e-08
2.460207942e-08
2.056902064e-08
1.901757438e-08
1.840492449e-08
1.817095328e-08
1.808896272e-08
1.806708825e-08
1.807011912e-08
1.808234287e-08
1.809837195e-08
1.811704295e-08
1.813466906e-08
1.81488921e-08
1.815924152e-08
1.816654857e-08
1.817192831e-08
1.817619852e-08
1.817981875e-08
1.818301487e-08
1.818589938e-08
1.818854202e-08
1.819098506e-08
1.81932566e-08
1.819538245e-08
1.819738154e-08
1.819926925e-08
1.820105444e-08
1.820274885e-08
1.82043598e-08
1.82058923e-08
1.820735243e-08
1.820874851e-08
1.821008553e-08
1.821136367e-08
1.821258926e-08
1.821376625e-08
1.82148951e-08
1.821598055e-08
1.821702341e-08
1.82180306e-08
1.82190013e-08
1.821994209e-08
1.82208525e-08
1.822175989e-08
1.822267775e-08
1.822375231e-08
1.822523105e-08
1.822785969e-08
1.823294489e-08
1.824274174e-08
1.825769861e-08
1.82692241e-08
2.612349462e-06
2.083755545e-06
6.505457387e-06
7.079102211e-06
5.986137209e-06
2.02656697e-06
2.854300036e-07
6.808727291e-08
3.268603386e-08
2.321551973e-08
1.99637464e-08
1.875751559e-08
1.831248699e-08
1.815707388e-08
1.811098402e-08
1.810690722e-08
1.811802682e-08
1.813499756e-08
1.815504962e-08
1.817437054e-08
1.819054909e-08
1.820285952e-08
1.821187428e-08
1.821861834e-08
1.822395148e-08
1.8228408e-08
1.823227847e-08
1.82357207e-08
1.823883037e-08
1.824166918e-08
1.824428114e-08
1.824669976e-08
1.824895071e-08
1.8251055e-08
1.825302801e-08
1.825488444e-08
1.825663525e-08
1.82582899e-08
1.825985672e-08
1.826134369e-08
1.826275736e-08
1.8264102e-08
1.826538341e-08
1.826660609e-08
1.826777343e-08
1.826888922e-08
1.826995587e-08
1.827097776e-08
1.827195753e-08
1.82729003e-08
1.82738123e-08
1.827471605e-08
1.827564946e-08
1.827674028e-08
1.827823251e-08
1.828064534e-08
1.828472e-08
1.829135513e-08
1.830013679e-08
1.83061036e-08
4.216184565e-06
1.410376992e-06
7.017487516e-06
1.065917052e-05
1.011960902e-05
5.807633519e-06
1.060274337e-06
1.556647186e-07
4.973663997e-08
2.794682128e-08
2.148426784e-08
1.926864086e-08
1.848562787e-08
1.821533432e-08
1.813042151e-08
1.811366191e-08
1.812115415e-08
1.813759081e-08
1.815808136e-08
1.817834478e-08
1.819584449e-08
1.820965229e-08
1.822008868e-08
1.822802626e-08
1.82343017e-08
1.823949011e-08
1.824393359e-08
1.824783295e-08
1.825131366e-08
1.825445958e-08
1.825732988e-08
1.825996795e-08
1.826240696e-08
1.826467279e-08
1.826678603e-08
1.826876399e-08
1.827062066e-08
1.827236805e-08
1.827401624e-08
1.827557426e-08
1.827704977e-08
1.827844915e-08
1.82797785e-08
1.828104299e-08
1.8282247e-08
1.828339466e-08
1.828448939e-08
1.828553514e-08
1.828653578e-08
1.828749684e-08
1.828842829e-08
1.828935501e-08
1.82903311e-08
1.829148802e-08
1.829307415e-08
1.829550839e-08
1.829929844e-08
1.830485076e-08
1.831147814e-08
1.831535702e-08
6.110081553e-06
1.044043414e-06
5.116789097e-06
1.518786187e-05
1.592316123e-05
1.150863278e-05
3.249677434e-06
4.405984379e-07
9.14319005e-08
3.708351354e-08
2.398971198e-08
2.003014651e-08
1.872903783e-08
1.829361924e-08
1.815300995e-08
1.811676776e-08
1.811753296e-08
1.813189722e-08
1.815200234e-08
1.817266044e-08
1.819104952e-08
1.82060354e-08
1.821770903e-08
1.822676604e-08
1.823396943e-08
1.823989542e-08
1.824491692e-08
1.824927009e-08
1.82531113e-08
1.825654886e-08
1.825965962e-08
1.826249935e-08
1.826510961e-08
1.826752228e-08
1.826976252e-08
1.827185076e-08
1.827380382e-08
1.82756358e-08
1.827735863e-08
1.827898258e-08
1.82805165e-08
1.828196797e-08
1.828334376e-08
1.828464975e-08
1.828589105e-08
1.828707231e-08
1.828819765e-08
1.828927132e-08
1.829029811e-08
1.829128487e-08
1.829224504e-08
1.829320931e-08
1.829424556e-08
1.829549713e-08
1.829721814e-08
1.829978088e-08
1.830358231e-08
1.830881564e-08
1.831463848e-08
1.831754217e-08
8.636957874e-06
1.254586424e-06
3.448131362e-06
1.975781346e-05
2.468310126e-05
1.920576995e-05
7.800797255e-06
1.119095568e-06
1.814102324e-07
5.268173676e-08
2.757201522e-08
2.101843388e-08
1.904014299e-08
1.840028934e-08
1.818893144e-08
1.812569235e-08
1.811578578e-08
1.812606809e-08
1.814474557e-08
1.816518307e-08
1.818402671e-08
1.819987248e-08
1.821258467e-08
1.822267344e-08
1.823079403e-08
1.82374854e-08
1.824312309e-08
1.824796348e-08
1.82521888e-08
1.82559321e-08
1.825929047e-08
1.826233461e-08
1.826511649e-08
1.826767521e-08
1.827004104e-08
1.827223811e-08
1.827428608e-08
1.827620127e-08
1.827799746e-08
1.827968634e-08
1.828127794e-08
1.828278089e-08
1.828420273e-08
1.828555006e-08
1.828682868e-08
1.828804385e-08
1.82892003e-08
1.829030284e-08
1.82913574e-08
1.829237282e-08
1.829336669e-08
1.829437717e-08
1.829548497e-08
1.829684622e-08
1.829871761e-08
1.830143947e-08
1.830533407e-08
1.831046243e-08
1.831586093e-08
1.831809115e-08
1.71990008e-05
2.279016647e-06
2.721659536e-06
2.065930366e-05
3.682890884e-05
2.988002495e-05
1.477298523e-05
2.621234676e-06
3.639572157e-07
7.860329533e-08
3.222180242e-08
2.213498326e-08
1.939025969e-08
1.853143993e-08
1.824010503e-08
1.814333436e-08
1.811882296e-08
1.81228695e-08
1.813892154e-08
1.815840737e-08
1.81771875e-08
1.819349691e-08
1.820696488e-08
1.821791515e-08
1.822687752e-08
1.823432332e-08
1.824060023e-08
1.824596173e-08
1.825060257e-08
1.825467539e-08
1.825829731e-08
1.826155571e-08
1.826451503e-08
1.826722311e-08
1.826971634e-08
1.82720232e-08
1.827416653e-08
1.827616509e-08
1.827803455e-08
1.827978811e-08
1.828143708e-08
1.82829911e-08
1.828445858e-08
1.828584685e-08
1.828716241e-08
1.828841112e-08
1.828959837e-08
1.829072973e-08
1.829181249e-08
1.829285821e-08
1.829388945e-08
1.82949527e-08
1.829614056e-08
1.829761945e-08
1.829964353e-08
1.83025223e-08
1.830651336e-08
1.831157232e-08
1.831663867e-08
1.831826187e-08
2.603814182e-05
3.656328641e-06
2.393072495e-06
1.774272339e-05
5.231083344e-05
4.320217723e-05
2.37048647e-05
5.98528481e-06
7.382048411e-07
1.273063017e-07
3.923490585e-08
2.355315879e-08
1.981504574e-08
1.869626678e-08
1.830941252e-08
1.81712243e-08
1.812794452e-08
1.812356362e-08
1.813574915e-08
1.815348869e-08
1.817160517e-08
1.818789341e-08
1.820172893e-08
1.821325762e-08
1.822288204e-08
1.823098896e-08
1.823787315e-08
1.824375931e-08
1.824883396e-08
1.825325657e-08
1.825715864e-08
1.826064305e-08
1.826378736e-08
1.826664944e-08
1.82692728e-08
1.827169097e-08
1.827393046e-08
1.827601271e-08
1.827795541e-08
1.827977343e-08
1.828147935e-08
1.828308396e-08
1.828459655e-08
1.828602524e-08
1.82873772e-08
1.828865891e-08
1.828987651e-08
1.82910366e-08
1.829214814e-08
1.829322602e-08
1.829429847e-08
1.829542051e-08
1.829669528e-08
1.829829604e-08
1.830046925e-08
1.830349193e-08
1.830756094e-08
1.831254138e-08
1.831729568e-08
1.831832753e-08
3.380749957e-05
5.266943227e-06
2.643351547e-06
1.61503292e-05
7.278738054e-05
5.793515542e-05
3.295277698e-05
1.119263228e-05
1.549173683e-06
2.263886512e-07
5.071554119e-08
2.551341635e-08
2.038291568e-08
1.892155971e-08
1.840795244e-08
1.821418501e-08
1.814549781e-08
1.812951141e-08
1.813620471e-08
1.815123665e-08
1.816801803e-08
1.818373629e-08
1.819747333e-08
1.820920235e-08
1.821920601e-08
1.822778353e-08
1.823516361e-08
1.824152192e-08
1.824701452e-08
1.825178922e-08
1.825597991e-08
1.825969893e-08
1.82630349e-08
1.826605544e-08
1.826881164e-08
1.827134264e-08
1.827367897e-08
1.827584508e-08
1.827786091e-08
1.827974303e-08
1.828150543e-08
1.828316005e-08
1.828471716e-08
1.828618566e-08
1.82875734e-08
1.828888758e-08
1.82901352e-08
1.829132415e-08