/*--------------------------------*- C++ -*----------------------------------*\
  =========                 |
  \\      /  F ield         | OpenFOAM: The Open Source CFD Toolbox
   \\    /   O peration     | Website:  https://openfoam.org
    \\  /    A nd           | Version:  10
     \\/     M anipulation  |
\*---------------------------------------------------------------------------*/
FoamFile
{
    format      ascii;
    class       volScalarField;
    location    "0.02499901733";
    object      CH2O_0;
}
// * * * * * * * * * * * * * * * * * * * * * * * * * * * * * * * * * * * * * //

dimensions      [0 0 0 0 0 0 0];

internalField   nonuniform List<scalar> 
5170
(
7.563779699e-09
7.550527414e-09
7.463081364e-09
6.84391022e-09
5.30947093e-10
1.517727984e-08
1.513588155e-08
1.494975781e-08
1.400144588e-08
8.625330232e-09
2.274432177e-08
2.267537084e-08
2.240267914e-08
2.126877043e-08
1.681503123e-08
3.024851387e-08
3.015479691e-08
2.981676032e-08
2.860627459e-08
2.50542096e-08
3.768782236e-08
3.757332156e-08
3.719381766e-08
3.599593483e-08
3.333459346e-08
4.505870914e-08
4.493083073e-08
4.453509898e-08
4.343217117e-08
4.165711608e-08
5.236240455e-08
5.222773919e-08
5.184069402e-08
5.09142444e-08
5.002104954e-08
5.960507928e-08
5.947282003e-08
5.911796733e-08
5.843610799e-08
5.842400101e-08
6.6791285e-08
6.666917351e-08
6.63721189e-08
6.599938157e-08
6.686313476e-08
7.392868966e-08
7.382224124e-08
7.36003238e-08
7.360763723e-08
7.53382232e-08
8.102209751e-08
8.093693493e-08
8.080497295e-08
8.126186321e-08
8.384550077e-08
8.807249079e-08
8.801561059e-08
8.800391113e-08
8.895962568e-08
9.237586512e-08
9.508350495e-08
9.506206439e-08
9.52056128e-08
9.670242627e-08
1.009225018e-07
1.020592612e-07
1.020807003e-07
1.024110512e-07
1.044916715e-07
1.094797383e-07
1.090030554e-07
1.090763993e-07
1.09623216e-07
1.123251052e-07
1.180401716e-07
1.159158864e-07
1.160511314e-07
1.168551128e-07
1.202060759e-07
1.265854753e-07
1.228003946e-07
1.230087703e-07
1.241011388e-07
1.281207338e-07
1.351238263e-07
1.296595186e-07
1.299547793e-07
1.313844431e-07
1.36079968e-07
1.436269946e-07
1.364956433e-07
1.368946908e-07
1.387204575e-07
1.441349771e-07
1.522853239e-07
1.434030145e-07
1.443162762e-07
1.493025118e-07
1.726479281e-07
2.552476429e-07
8.494174274e-13
7.199042797e-13
6.618502825e-13
6.662423127e-13
7.24236986e-13
4.359774239e-13
4.645625644e-13
3.656691971e-13
3.542913842e-13
2.886310795e-13
1.845075917e-13
2.503684116e-13
1.955694485e-13
1.985686177e-13
1.547963835e-13
1.002075618e-13
1.419200781e-13
1.22199571e-13
1.144788781e-13
8.51020851e-14
0
8.873332757e-14
8.173344213e-14
5.738506969e-14
0
0
0
0
2.085190484e-12
0
0
0
0
6.51777773e-10
5.697585399e-09
2.522391931e-08
6.692340057e-10
1.941966995e-12
0
1.519576577e-07
1.58982795e-07
7.091202814e-09
8.905177614e-10
9.421005183e-08
7.965816169e-09
2.610473007e-08
1.187954956e-07
1.05744458e-07
4.135150279e-08
2.266979979e-09
1.852217993e-09
2.421154427e-08
2.312450356e-08
0
2.114701438e-09
2.334432606e-09
0
0
0
4.668811912e-10
7.12997071e-10
4.68819295e-10
0
9.421598449e-10
5.248877955e-09
3.996763271e-09
8.342825783e-10
4.313886455e-10
2.142106385e-09
5.464915054e-09
6.054682754e-09
2.429361572e-09
1.968543495e-09
4.250123965e-09
4.932016096e-09
5.581735459e-09
4.605300419e-09
4.268703668e-09
5.181999053e-09
4.487000361e-09
4.196430431e-09
5.08702241e-09
5.022813272e-09
4.765299764e-09
4.054716353e-09
3.386007626e-09
4.338674076e-09
4.4005974e-09
3.940000275e-09
3.599473861e-09
1.326222135e-08
6.549502232e-09
4.193162464e-09
3.4751719e-09
3.169380042e-09
1.173739758e-06
3.482523505e-07
4.564510037e-08
1.092158697e-08
4.282242039e-10
1.522809253e-07
1.699716656e-07
4.542855396e-07
4.649908049e-06
5.607509239e-05
1.712189915e-07
2.594200999e-07
1.441136768e-06
1.410020896e-05
0.0001041631402
2.170521516e-07
5.015220335e-07
3.689514566e-06
2.881539208e-05
0.0001467670829
3.210154539e-07
1.026532301e-06
7.678163998e-06
4.799930582e-05
0.0001801809147
5.397815678e-07
2.050740691e-06
1.412088131e-05
7.008626054e-05
0.0002042980687
9.753032144e-07
3.933178437e-06
2.353942107e-05
9.298328324e-05
0.0002231691903
1.790566508e-06
7.101454405e-06
3.591451647e-05
0.0001155247243
0.0002408459588
3.239563597e-06
1.2105565e-05
5.100506066e-05
0.0001371715782
0.0002571802611
5.733133169e-06
1.960169465e-05
6.827145086e-05
0.0001573795972
0.0002710367951
9.843102163e-06
2.996283619e-05
8.698806338e-05
0.0001761235715
0.0002826084869
1.641168408e-05
4.357446188e-05
0.0001064655751
0.000193379171
0.0002923806662
2.750496626e-05
6.066881063e-05
0.0001261290985
0.0002096634078
0.0003015355344
4.34873497e-05
8.051564156e-05
0.0001459221264
0.0002252136836
0.0003101412675
6.557782475e-05
0.0001032365701
0.0001662017581
0.0002404180036
0.0003183938192
9.389631595e-05
0.0001288774251
0.0001874949069
0.0002560382582
0.0003273811926
0.0001264285366
0.0001574857039
0.0002106690612
0.0002730553668
0.0003381850648
0.0001642148579
0.0001906070424
0.0002375641214
0.0002939203858
0.0003532946622
0.0002064700027
0.0002288555356
0.0002709182685
0.0003232905557
0.0003801698714
0.0002568010849
0.0002776158444
0.0003184928088
0.0003721089604
0.0004333121435
0.0003261615467
0.0003469124379
0.0003887595882
0.0004453337514
0.0005118480534
0.0004199154156
0.0004378144736
0.0004740048133
0.000522842192
0.000579844849
0.0005020589626
0.0005128292618
0.0005350318486
0.0005650462767
0.0005992320841
0.0005265901737
0.0005311202636
0.0005402559054
0.0005519871655
0.0005641487523
0.0004937158011
0.0004944136819
0.0004953922636
0.0004957528465
0.0004945176244
0.0004283541318
0.0004273653744
0.000424841948
0.0004205201345
0.0004141189056
0.0003545120977
0.0003530590148
0.0003496756402
0.0003443387647
0.0003370594883
0.0002897527806
0.0002883996753
0.0002852764391
0.0002804539683
0.000274031814
0.0002353830176
0.0002342625748
0.000231700553
0.0002277804377
0.0002226128459
0.0001911868028
0.0001903096498
0.0001883148744
0.000185276013
0.0001812856678
0.0001556605431
0.0001549941105
0.0001534828949
0.0001511845025
0.0001481697652
0.0001271639063
0.0001266657437
0.0001255375098
0.0001238219862
0.0001215704348
0.0001042700567
0.0001039011749
0.000103065263
0.0001017925033
0.0001001194112
8.58305424e-05
8.55576715e-05
8.493883946e-05
8.399516106e-05
8.275222513e-05
7.096869951e-05
7.076631952e-05
7.030690707e-05
6.960520728e-05
6.867910904e-05
5.903793607e-05
5.888685976e-05
5.854372552e-05
5.801888047e-05
5.732483421e-05
4.953943517e-05
4.942543834e-05
4.916653724e-05
4.877013717e-05
4.824502993e-05
4.204926484e-05
4.196185922e-05
4.176358602e-05
4.145989041e-05
4.105698797e-05
3.618504662e-05
3.611668106e-05
3.596192353e-05
3.572492871e-05
3.541014793e-05
3.160464533e-05
3.154997607e-05
3.142658903e-05
3.123776907e-05
3.098675727e-05
2.801604491e-05
2.797136521e-05
2.787087138e-05
2.771724695e-05
2.751289635e-05
2.518132064e-05
2.514405252e-05
2.506051681e-05
2.49329696e-05
2.476322474e-05
2.291397483e-05
2.288231465e-05
2.281157342e-05
2.270368774e-05
2.256006368e-05
2.107096141e-05
2.104366068e-05
2.098283833e-05
2.08901838e-05
2.076681092e-05
1.954692146e-05
1.952307467e-05
1.94700769e-05
1.938942208e-05
1.928199842e-05
1.82625065e-05
1.824145819e-05
1.819477293e-05
1.812377374e-05
1.802919614e-05
1.715971045e-05
1.714097962e-05
1.709949961e-05
1.703645503e-05
1.695245995e-05
1.619656858e-05
1.617979201e-05
1.614267474e-05
1.608628105e-05
1.601112925e-05
1.534189608e-05
1.532680145e-05
1.529344446e-05
1.524278296e-05
1.517526495e-05
1.457573068e-05
1.456211952e-05
1.453206164e-05
1.448641984e-05
1.442557986e-05
1.388284453e-05
1.387053851e-05
1.384337718e-05
1.380210221e-05
1.374708519e-05
1.325042966e-05
1.323925403e-05
1.321461173e-05
1.317720546e-05
1.3127325e-05
1.267401344e-05
1.266387425e-05
1.264151112e-05
1.260756039e-05
1.256227651e-05
1.214494962e-05
1.213573033e-05
1.21154015e-05
1.208453934e-05
1.204336542e-05
1.165807013e-05
1.16496666e-05
1.163114078e-05
1.160301591e-05
1.156548926e-05
1.120909462e-05
1.120141375e-05
1.118448516e-05
1.11587848e-05
1.112448226e-05
1.079442687e-05
1.078737721e-05
1.077184363e-05
1.074826159e-05
1.071677987e-05
1.041102121e-05
1.040452068e-05
1.039020128e-05
1.036846328e-05
1.033943882e-05
1.005599626e-05
1.004997012e-05
1.003670045e-05
1.001655823e-05
9.989661712e-06
9.72570051e-06
9.720085776e-06
9.707727294e-06
9.688972643e-06
9.663932429e-06
9.415272841e-06
9.410019065e-06
9.398457753e-06
9.38091288e-06
9.357481838e-06
9.118481717e-06
9.113558801e-06
9.102725745e-06
9.086283436e-06
9.06431838e-06
8.829104993e-06
8.824487121e-06
8.814324576e-06
8.798899179e-06
8.778291246e-06
8.54304225e-06
8.538731016e-06
8.529239793e-06
8.514831657e-06
8.495587717e-06
8.259817661e-06
8.255797082e-06
8.246941436e-06
8.233493768e-06
8.21552925e-06
7.978678502e-06
7.974963863e-06
7.966775177e-06
7.954332693e-06
7.937702836e-06
7.703521559e-06
7.700123435e-06
7.692634448e-06
7.681261244e-06
7.66606592e-06
7.440736123e-06
7.437619525e-06
7.430738602e-06
7.420271691e-06
7.406272101e-06
7.193503541e-06
7.190644004e-06
7.184328051e-06
7.174714652e-06
7.161844764e-06
6.964628481e-06
6.961946722e-06
6.956025131e-06
6.947013376e-06
6.934950781e-06
6.77000552e-06
6.76746174e-06
6.761845126e-06
6.753297998e-06
6.741858145e-06
0.0001745496358
0.0002390690107
0.0002802079876
0.0003014044993
0.0003119919467
0.0003209584846
0.0003324642377
0.000342632901
0.0003492811834
0.0003536769662
0.000356801277
0.0003605148344
0.0003642126849
0.000367425334
0.000372104991
0.000379084701
0.0003910778993
0.0004171339859
0.0004755206127
0.000559462263
0.0006202738775
0.0006224770907
0.0005714805184
0.0004926186038
0.0004089027703
0.0003314333648
0.0002691711046
0.0002187261037
0.000178289212
0.0001459058137
0.0001198783791
9.886101602e-05
8.181672372e-05
6.798149719e-05
5.680126474e-05
4.784780873e-05
4.075083833e-05
3.51694793e-05
3.079343585e-05
2.735424969e-05
2.463039433e-05
2.244683808e-05
2.066891888e-05
1.919628472e-05
1.795338238e-05
1.688487461e-05
1.595047715e-05
1.512065308e-05
1.437627521e-05
1.370242419e-05
1.308677367e-05
1.252542602e-05
1.20098219e-05
1.1534886e-05
1.109647757e-05
1.069105027e-05
1.031569342e-05
9.967634087e-06
9.643410947e-06
9.338259572e-06
9.046286013e-06
8.761374587e-06
8.479811935e-06
8.200812067e-06
7.924093432e-06
7.653624582e-06
7.394842692e-06
7.151322446e-06
6.925083068e-06
6.732499539e-06
0.0003055100043
2.342475469e-05
7.155285673e-07
1.117300553e-07
1.435944538e-08
0.0004268489885
0.0005739848167
3.309135291e-05
1.004147887e-06
2.702307313e-07
0.0004829697018
0.0006752941996
6.190016958e-05
3.321675495e-06
1.273503902e-06
0.0004873514606
0.0006134419068
0.0001333424067
1.034062989e-05
1.689660567e-06
0.0004764025093
0.0005782558461
0.0002738143579
2.762411412e-05
2.255043229e-06
0.0004704353691
0.0005800572731
0.0004010759199
5.034566234e-05
4.799986326e-06
0.0004727360245
0.0005943390736
0.0004896880273
7.135500026e-05
8.150739504e-06
0.0004724363881
0.0005885085942
0.0005151607138
9.913784491e-05
1.301138264e-05
0.000466468588
0.0005701234945
0.0005182252542
0.0001852580938
2.701718798e-05
0.0004588814327
0.0005527328
0.0005188832994
0.0002353495934
3.863309579e-05
0.0004511708093
0.0005398935771
0.0005200391855
0.0002745107538
4.959167369e-05
0.0004466048175
0.0005290643853
0.0005182089756
0.0003122161023
6.319684771e-05
0.000443005484
0.0005161807695
0.0005145235268
0.0003519671644
0.0001175069023
0.0004384009183
0.0005077478252
0.0005120124316
0.0003804092872
0.0001607100829
0.0004367436425
0.0005030211509
0.0005103424396
0.0003988805552
0.0001887612749
0.0004382317746
0.0005012740945
0.0005108155036
0.0004137178284
0.0002122062636
0.0004455796816
0.000504854742
0.0005156905461
0.0004230160214
0.0002232136094
0.0004696861714
0.0005279409854
0.0005337500533
0.0004253665779
0.000208338562
0.000535567407
0.0006164901823
0.0006476552336
0.0005258139287
0.0001587816372
0.0006283425554
0.0007404536123
0.0008546083468
0.0009510468095
0.0009919180858
0.0006792537884
0.0007690746733
0.0008496288328
0.0009050539439
0.0009029491642
0.0006571646943
0.0006988130024
0.0007180715041
0.0007041343427
0.0006489837815
0.0005838231887
0.0005879667526
0.000571984272
0.0005341009842
0.0004764415361
0.0004919606145
0.0004787626455
0.0004521034126
0.0004133998087
0.0003659091501
0.0004033111593
0.0003856624578
0.0003594371844
0.000326571393
0.0002895469606
0.0003248892577
0.000308387622
0.0002863756121
0.0002605244792
0.0002325795113
0.000263386024
0.000249762624
0.0002323405885
0.0002124246303
0.0001912412804
0.0002140423045
0.0002033460033
0.000189918211
0.000174729509
0.0001586484851
0.0001746558825
0.0001664600067
0.0001562398617
0.0001447030023
0.0001324720062
0.0001431559103
0.0001369647008
0.0001292344547
0.0001204848997
0.0001111645875
0.0001178272267
0.0001131856763
0.0001073616154
0.0001007300469
9.361590426e-05
9.734328641e-05
9.387517578e-05
8.948946425e-05
8.445693492e-05
7.901392774e-05
8.069634575e-05
7.810352431e-05
7.479460622e-05
7.096615924e-05
6.679020594e-05
6.715190326e-05
6.520662193e-05
6.270137193e-05
5.977919256e-05
5.65659424e-05
5.618123416e-05
5.471202392e-05
5.28053749e-05
5.056546159e-05
4.80843233e-05
4.737656356e-05
4.625479751e-05
4.479203197e-05
4.306394232e-05
4.113775581e-05
4.038409356e-05
3.951410393e-05
3.837850798e-05
3.703208318e-05
3.552369285e-05
3.487612953e-05
3.41881336e-05
3.329262265e-05
3.222939384e-05
3.1034039e-05
3.055236509e-05
2.999671846e-05
2.927786289e-05
2.842458641e-05
2.746289408e-05
2.715135462e-05
2.669311748e-05
2.610498779e-05
2.540796417e-05
2.462119437e-05
2.445618982e-05
2.407080955e-05
2.358049806e-05
2.300073122e-05
2.234595536e-05
2.229485738e-05
2.196509178e-05
2.154934539e-05
2.105918744e-05
2.050537676e-05
2.053485508e-05
2.024889572e-05
1.989111526e-05
1.947030998e-05
1.899477281e-05
1.907691041e-05
1.882586155e-05
1.851385495e-05
1.814771007e-05
1.773391142e-05
1.784634415e-05
1.762379541e-05
1.734874491e-05
1.702654195e-05
1.666230694e-05
1.678842057e-05
1.658963277e-05
1.634497595e-05
1.605874042e-05
1.573509506e-05
1.586318645e-05
1.568449242e-05
1.546528978e-05
1.520926855e-05
1.491985899e-05
1.504155385e-05
1.488049559e-05
1.468347598e-05
1.445343051e-05
1.419325803e-05
1.430450359e-05
1.415892121e-05
1.398112422e-05
1.377348086e-05
1.353849664e-05
1.363714951e-05
1.350512329e-05
1.3344087e-05
1.315608742e-05
1.29431904e-05
1.302729219e-05
1.290729558e-05
1.276110582e-05
1.259047858e-05
1.239718645e-05
1.247123009e-05
1.236208148e-05
1.222920283e-05
1.207409258e-05
1.18982614e-05
1.196036604e-05
1.186091048e-05
1.173989075e-05
1.159858066e-05
1.143828311e-05
1.148965985e-05
1.139883691e-05
1.128836132e-05
1.115931854e-05
1.101281005e-05
1.105499411e-05
1.09717949e-05
1.087062447e-05
1.075241179e-05
1.061809637e-05
1.065284661e-05
1.057633158e-05
1.048334567e-05
1.037467264e-05
1.025112211e-05
1.028034574e-05
1.020967414e-05
1.012385188e-05
1.002355357e-05
9.909480167e-06
9.93475253e-06
9.869155184e-06
9.789581077e-06
9.696614818e-06
9.590888408e-06
9.612695081e-06
9.55153142e-06
9.477392006e-06
9.390780634e-06
9.292225077e-06
9.309438172e-06
9.252151536e-06
9.182785563e-06
9.101754482e-06
9.009504098e-06
9.019218781e-06
8.965424963e-06
8.90027946e-06
8.824163869e-06
8.737469927e-06
8.735999716e-06
8.685519686e-06
8.624351606e-06
8.552855887e-06
8.471420081e-06
8.456214043e-06
8.409157696e-06
8.352054421e-06
8.285056294e-06
8.208580182e-06
8.178870974e-06
8.134939745e-06
8.081465553e-06
8.01877045e-06
7.947202096e-06
7.903888201e-06
7.863263044e-06
7.813699076e-06
7.755547473e-06
7.689217029e-06
7.635262546e-06
7.598038962e-06
7.552467595e-06
7.498842547e-06
7.437486439e-06
7.378026453e-06
7.343932316e-06
7.302123432e-06
7.252837795e-06
7.196305863e-06
7.135822763e-06
7.104295392e-06
7.065500154e-06
7.019653377e-06
6.966930367e-06
6.910521703e-06
6.880927726e-06
6.844500243e-06
6.801462821e-06
6.752059561e-06
6.718678582e-06
6.690656991e-06
6.656241902e-06
6.615664115e-06
6.569163557e-06
2.569075954e-09
3.845956714e-08
1.040973372e-08
3.618295591e-09
2.135279255e-09
1.671522441e-09
1.495629644e-09
1.429042727e-09
1.405624835e-09
1.39771058e-09
1.394374605e-09
1.391681666e-09
1.38901232e-09
1.386873878e-09
1.38620154e-09
1.38821081e-09
1.386362856e-09
1.380603306e-09
1.377438071e-09
1.375653166e-09
1.37441578e-09
1.373366491e-09
1.372389581e-09
1.37147491e-09
1.370633266e-09
1.369862133e-09
1.369152857e-09
1.368503583e-09
1.367903885e-09
1.367343801e-09
1.366820838e-09
1.366330194e-09
1.365873064e-09
1.365448378e-09
1.365055186e-09
1.364692996e-09
1.364360168e-09
1.364053441e-09
1.363766911e-09
1.363502424e-09
1.363250616e-09
1.363010088e-09
1.362781954e-09
1.362560577e-09
1.362356191e-09
1.362183637e-09
1.362030167e-09
1.361894912e-09
1.361767626e-09
1.361656385e-09
1.361553753e-09
1.361460532e-09
1.361371143e-09
1.361276347e-09
1.360975979e-09
1.359065794e-09
1.347749262e-09
1.297437548e-09
1.128043091e-09
9.02750353e-10
5.098315661e-08
1.851981059e-07
4.251603334e-08
1.277913785e-08
7.546518951e-09
6.186128128e-09
5.716698331e-09
5.53081283e-09
5.456235254e-09
5.425143062e-09
5.410120949e-09
5.399532222e-09
5.390191128e-09
5.382147332e-09
5.37767986e-09
5.380112928e-09
5.374476843e-09
5.359026885e-09
5.350263434e-09
5.345179088e-09
5.3415728e-09
5.338388358e-09
5.33539331e-09
5.332654103e-09
5.330232269e-09
5.328061258e-09
5.326085456e-09
5.324336589e-09
5.32273564e-09
5.321287596e-09
5.319972418e-09
5.318742493e-09
5.317649238e-09
5.31666467e-09
5.315782893e-09
5.31499959e-09
5.314345395e-09
5.313773553e-09
5.313220179e-09
5.312740569e-09
5.312310746e-09
5.311882785e-09
5.311517726e-09
5.311223709e-09
5.310907628e-09
5.31067684e-09
5.310386388e-09
5.310207285e-09
5.310016575e-09
5.309933231e-09
5.3098483e-09
5.309767531e-09
5.309682945e-09
5.309647368e-09
5.309125037e-09
5.305973661e-09
5.291001637e-09
5.239910119e-09
5.130449914e-09
5.045474852e-09
2.387430298e-07
2.673609439e-07
7.274851366e-08
2.225279412e-08
1.362814112e-08
1.151907764e-08
1.080712683e-08
1.051231061e-08
1.037677823e-08
1.031073365e-08
1.027536759e-08
1.025248226e-08
1.023427987e-08
1.02186126e-08
1.020742602e-08
1.020528505e-08
1.019496994e-08
1.01735906e-08
1.016121463e-08
1.015369862e-08
1.014789649e-08
1.01424331e-08
1.013714869e-08
1.013224831e-08
1.012786338e-08
1.01239576e-08
1.012044053e-08
1.011732258e-08
1.01145301e-08
1.011205379e-08
1.010984692e-08
1.010788912e-08
1.010623151e-08
1.010479362e-08
1.010356929e-08
1.010255116e-08
1.010171286e-08
1.010097327e-08
1.010028636e-08
1.009971301e-08
1.009925659e-08
1.009888635e-08
1.00986264e-08
1.009851861e-08
1.009840715e-08
1.009840473e-08
1.009832838e-08
1.009842611e-08
1.009847615e-08
1.009868779e-08
1.009894023e-08
1.009927697e-08
1.009948678e-08
1.009992418e-08
1.009995541e-08
1.009900059e-08
1.009505452e-08
1.00930006e-08
1.013847732e-08
1.022838157e-08
8.242435928e-07
3.84773281e-07
1.611732551e-07
3.755778064e-08
1.977178883e-08
1.620261184e-08
1.507647727e-08
1.459567086e-08
1.435875647e-08
1.423715084e-08
1.417285546e-08
1.413647483e-08
1.411274472e-08
1.409491088e-08
1.408220289e-08
1.407797052e-08
1.406829717e-08
1.40510013e-08
1.404202259e-08
1.40370009e-08
1.403274381e-08
1.402814839e-08
1.402333022e-08
1.401869776e-08
1.401451284e-08
1.401079544e-08
1.400749442e-08
1.400460531e-08
1.400207421e-08
1.399988579e-08
1.39979896e-08
1.399637005e-08
1.399507471e-08
1.399404538e-08
1.399322522e-08
1.399264104e-08
1.399223856e-08
1.399191872e-08
1.399163726e-08
1.399146064e-08
1.399139997e-08
1.399142711e-08
1.399156031e-08
1.399184505e-08
1.399218579e-08
1.399261791e-08
1.399301281e-08
1.399353087e-08
1.399399424e-08
1.399463591e-08
1.399529387e-08
1.399608443e-08
1.399671511e-08
1.39976831e-08
1.399863026e-08
1.400108106e-08
1.400933968e-08
1.404563014e-08
1.416498174e-08
1.43058336e-08
2.179767473e-06
9.139982359e-07
6.676313682e-07
1.563091101e-07
3.947772955e-08
2.274146252e-08
1.889885804e-08
1.754272562e-08
1.694161981e-08
1.665397706e-08
1.65151537e-08
1.644896464e-08
1.641740028e-08
1.640175558e-08
1.639475542e-08
1.639552869e-08
1.639398871e-08
1.63886811e-08
1.638891373e-08
1.639074592e-08
1.639161078e-08
1.639095541e-08
1.638933119e-08
1.638739778e-08
1.638556349e-08
1.638394432e-08
1.638255341e-08
1.638139923e-08
1.638045876e-08
1.637972554e-08
1.637916888e-08
1.637878099e-08
1.637858729e-08
1.63785635e-08
1.637866425e-08
1.637890959e-08
1.637925904e-08
1.637964655e-08
1.63800436e-08
1.638049942e-08
1.638102035e-08
1.638157619e-08
1.638218681e-08
1.638288512e-08
1.638362035e-08
1.638440549e-08
1.638518398e-08
1.638601131e-08
1.638679671e-08
1.638770136e-08
1.638860688e-08
1.638962252e-08
1.639052182e-08
1.639175136e-08
1.639330486e-08
1.639744423e-08
1.640994601e-08
1.645162461e-08
1.655559595e-08
1.666086288e-08
2.522471589e-06
2.062880149e-06
1.50533014e-06
7.711672773e-07
1.376476327e-07
4.065090671e-08
2.467556382e-08
2.035774744e-08
1.872971687e-08
1.802463542e-08
1.771071379e-08
1.757448377e-08
1.751854984e-08
1.749797302e-08
1.749361078e-08
1.749891544e-08
1.750557782e-08
1.751180902e-08
1.752140081e-08
1.753059398e-08
1.753718873e-08
1.754105659e-08
1.75431114e-08
1.754425628e-08
1.75450653e-08
1.754576865e-08
1.754645461e-08
1.754716452e-08
1.754790001e-08
1.754867168e-08
1.754947177e-08
1.755030272e-08
1.755117784e-08
1.755209425e-08
1.755303136e-08
1.755400079e-08
1.755498568e-08
1.755596159e-08
1.755691827e-08
1.755788285e-08
1.755885782e-08
1.75598207e-08
1.756078572e-08
1.756176405e-08
1.756273035e-08
1.756370555e-08
1.756467497e-08
1.756565454e-08
1.75665962e-08
1.756757374e-08
1.756853122e-08
1.756954976e-08
1.757051322e-08
1.757173342e-08
1.757341193e-08
1.757737511e-08
1.75879454e-08
1.761756271e-08
1.767935268e-08
1.773610706e-08
1.491740137e-06
3.131937243e-06
2.68445971e-06
2.302769275e-06
6.854496368e-07
1.150014315e-07
3.955770659e-08
2.515006538e-08
2.078018897e-08
1.908644867e-08
1.838092399e-08
1.808927942e-08
1.797485069e-08
1.793482432e-08
1.792599188e-08
1.793195142e-08
1.794295338e-08
1.795599494e-08
1.797167853e-08
1.798624238e-08
1.799742846e-08
1.800505993e-08
1.801014192e-08
1.801375635e-08
1.801661666e-08
1.801907998e-08
1.802130049e-08
1.802335332e-08
1.802527652e-08
1.802709692e-08
1.802882583e-08
1.80304774e-08
1.80320677e-08
1.803360314e-08
1.803508215e-08
1.803651504e-08
1.803790059e-08
1.803923573e-08
1.804052135e-08
1.804177052e-08
1.804298657e-08
1.804416064e-08
1.804530213e-08
1.804641459e-08
1.804748905e-08
1.804853767e-08
1.804955898e-08
1.80505642e-08
1.8051537e-08
1.805249743e-08
1.805342873e-08
1.805437812e-08
1.80553137e-08
1.805643762e-08
1.805800427e-08
1.806119366e-08
1.806849071e-08
1.808557228e-08
1.811603231e-08
1.814179551e-08
1.296020793e-06
2.889331944e-06
4.510436514e-06
4.392417712e-06
2.546737578e-06
4.75198306e-07
8.9633993e-08
3.676567106e-08
2.458557635e-08
2.056101347e-08
1.901473229e-08
1.840508565e-08
1.817267097e-08
1.809139462e-08
1.806981387e-08
1.807296225e-08
1.808524753e-08
1.8101326e-08
1.812003771e-08
1.8137691e-08
1.815192833e-08
1.816228471e-08
1.816959719e-08
1.817498282e-08
1.817925954e-08
1.818288622e-08
1.818608838e-08
1.818897847e-08
1.819162609e-08
1.819407355e-08
1.819634908e-08
1.819847847e-08
1.820048068e-08
1.820237111e-08
1.82041587e-08
1.820585522e-08
1.820746799e-08
1.82090021e-08
1.821046365e-08
1.821186093e-08
1.821319899e-08
1.821447802e-08
1.821570436e-08
1.821688197e-08
1.821801135e-08
1.821909724e-08
1.822014046e-08
1.822114788e-08
1.822211876e-08
1.82230596e-08
1.822397004e-08
1.822487727e-08
1.822579496e-08
1.822686875e-08
1.822834584e-08
1.82309689e-08
1.823603812e-08
1.824579315e-08
1.826067279e-08
1.827212857e-08
2.609991861e-06
2.0945561e-06
6.555837178e-06
7.132542137e-06
6.020802327e-06
2.027567067e-06
2.846542083e-07
6.793915361e-08
3.263519384e-08
2.319228191e-08
1.995360905e-08
1.875425198e-08
1.831256937e-08
1.815862146e-08
1.81131118e-08
1.810925371e-08
1.812046498e-08
1.813748847e-08
1.815757807e-08
1.817692198e-08
1.819311079e-08
1.8205424e-08
1.821443952e-08
1.82211851e-08
1.82265208e-08
1.823098032e-08
1.823485375e-08
1.823829879e-08
1.824141097e-08
1.824425202e-08
1.8246866e-08
1.82492864e-08
1.825153894e-08
1.825364462e-08
1.825561888e-08
1.825747639e-08
1.825922815e-08
1.826088366e-08
1.826245123e-08
1.826393885e-08
1.82653531e-08
1.826669824e-08
1.826798009e-08
1.826920314e-08
1.82703708e-08
1.827148687e-08
1.827255376e-08
1.827357583e-08
1.827455576e-08
1.827549863e-08
1.827641071e-08
1.827731445e-08
1.827824783e-08
1.827933838e-08
1.828083001e-08
1.828324074e-08
1.828730949e-08
1.829392938e-08
1.830268333e-08
1.830862431e-08
4.215953311e-06
1.416816504e-06
7.077653878e-06
1.074950579e-05
1.019055452e-05
5.815458835e-06
1.055118748e-06
1.550281737e-07
4.959330776e-08
2.789090133e-08
2.146043742e-08
1.925973061e-08
1.848347902e-08
1.821599688e-08
1.813215588e-08
1.811578533e-08
1.812342497e-08
1.81399296e-08
1.816046064e-08
1.818074681e-08
1.819825602e-08
1.821206541e-08
1.822250095e-08
1.823043827e-08
1.823671461e-08
1.824190461e-08
1.824634986e-08
1.825025095e-08
1.825373322e-08
1.825688056e-08
1.825975214e-08
1.826239136e-08
1.826483139e-08
1.826709814e-08
1.82692122e-08
1.827119089e-08
1.827304822e-08
1.827479619e-08
1.827644492e-08
1.827800342e-08
1.827947936e-08
1.828087913e-08
1.828220884e-08
1.828347364e-08
1.828467794e-08
1.828582586e-08
1.828692082e-08
1.828796678e-08
1.828896761e-08
1.828992883e-08
1.829086043e-08
1.829178725e-08
1.829276344e-08
1.829392041e-08
1.82955066e-08
1.829794068e-08
1.830172979e-08
1.830727844e-08
1.831389748e-08
1.831776668e-08
6.114429103e-06
1.051865716e-06
5.164545881e-06
1.533182814e-05
1.60423982e-05
1.153751341e-05
3.232282296e-06
4.374870763e-07
9.094689654e-08
3.693682584e-08
2.393505071e-08
2.001040643e-08
1.872318613e-08
1.829303348e-08
1.815430786e-08
1.811872119e-08
1.811972264e-08
1.813418282e-08
1.815433666e-08
1.817501967e-08
1.819341884e-08
1.820840637e-08
1.822007875e-08
1.822913486e-08
1.823633853e-08
1.82422656e-08
1.824728849e-08
1.825164306e-08
1.825548557e-08
1.825892432e-08
1.826203615e-08
1.826487685e-08
1.826748799e-08
1.826990144e-08
1.827214239e-08
1.827423129e-08
1.827618493e-08
1.827801744e-08
1.827974076e-08
1.828136515e-08
1.828289947e-08
1.828435132e-08
1.828572745e-08
1.828703376e-08
1.828827534e-08
1.828945687e-08
1.829058246e-08
1.829165636e-08
1.829268337e-08
1.829367031e-08
1.829463067e-08
1.82955951e-08
1.829663152e-08
1.82978833e-08
1.829960471e-08
1.830216816e-08
1.830597051e-08
1.831120406e-08
1.831702469e-08
1.831992363e-08
8.647642045e-06
1.260808985e-06
3.488147526e-06
1.99943138e-05
2.48857245e-05
1.927487012e-05
7.756550129e-06
1.106203417e-06
1.796256128e-07
5.229796859e-08
2.745587948e-08
2.098060503e-08
1.902886004e-08
1.839802761e-08
1.818967481e-08
1.812744639e-08
1.811789867e-08
1.812832112e-08
1.814706338e-08
1.816752986e-08
1.818638472e-08
1.820223267e-08
1.821494367e-08
1.822503132e-08
1.823315194e-08
1.823984422e-08
1.824548319e-08
1.825032492e-08
1.825455149e-08
1.825829594e-08
1.826165536e-08
1.826470045e-08
1.826748319e-08
1.82700427e-08
1.827240924e-08
1.827460695e-08
1.82766555e-08
1.827857124e-08
1.828036792e-08
1.828205724e-08
1.828364926e-08
1.828515259e-08
1.828657478e-08
1.828792243e-08
1.828920135e-08
1.82904168e-08
1.82915735e-08
1.829267629e-08
1.829373107e-08
1.82947467e-08
1.829574077e-08
1.829675144e-08
1.829785945e-08
1.8299221e-08
1.830109295e-08
1.830381582e-08
1.830771188e-08
1.831284145e-08
1.831823935e-08
1.832046605e-08
1.722171764e-05
2.288568903e-06
2.766860965e-06
2.102070541e-05
3.718197222e-05
3.00007604e-05
1.470890816e-05
2.570898515e-06
3.599740886e-07
7.768107898e-08
3.199558374e-08
2.207199931e-08
1.937264394e-08
1.852735222e-08
1.824022189e-08
1.814484611e-08
1.812084e-08
1.812508499e-08
1.814122494e-08
1.816074859e-08
1.817954167e-08
1.819585412e-08
1.820932112e-08
1.822027019e-08
1.822923245e-08
1.823667908e-08
1.824295727e-08
1.824832013e-08
1.825296227e-08
1.825703628e-08
1.826065927e-08
1.826391866e-08
1.826687886e-08
1.826958776e-08
1.827208173e-08
1.827438926e-08
1.82765332e-08
1.827853232e-08
1.828040228e-08
1.828215631e-08
1.828380571e-08
1.828536013e-08
1.828682797e-08
1.828821658e-08
1.828953244e-08
1.829078145e-08
1.829196896e-08
1.829310057e-08
1.829418356e-08
1.82952295e-08
1.829626094e-08
1.829732439e-08
1.829851249e-08
1.829999174e-08
1.830201647e-08
1.830489634e-08
1.830888894e-08
1.831394919e-08
1.83190153e-08
1.832063517e-08
2.606832273e-05
3.671835591e-06
2.443266299e-06
1.815869172e-05
5.284687411e-05
4.335173222e-05
2.360309359e-05
5.87632849e-06
7.247102056e-07
1.251068918e-07
3.880409788e-08
2.34529627e-08
1.978964047e-08
1.869010068e-08
1.830879415e-08
1.817243508e-08
1.812983753e-08
1.812573022e-08
1.813803489e-08
1.815582383e-08
1.817395686e-08
1.819024938e-08
1.820408419e-08
1.82156116e-08
1.822523576e-08
1.823334344e-08
1.824022892e-08
1.82461165e-08
1.825119252e-08
1.825561639e-08
1.825951961e-08
1.826300505e-08
1.826615031e-08
1.826901324e-08
1.827163738e-08
1.827405626e-08
1.827629639e-08
1.827837922e-08
1.828032246e-08
1.828214097e-08
1.828384734e-08
1.828545236e-08
1.828696533e-08
1.828839436e-08
1.828974664e-08
1.829102866e-08
1.829224653e-08
1.829340687e-08
1.829451865e-08
1.829559676e-08
1.829666941e-08
1.829779168e-08
1.829906671e-08
1.830066788e-08
1.830284178e-08
1.830586559e-08
1.830993608e-08
1.831491769e-08
1.831967183e-08
1.832070026e-08
3.38833459e-05
5.297374082e-06
2.71539738e-06
1.668983067e-05
7.352772824e-05
5.802376591e-05
3.277745242e-05
1.100114359e-05
1.513005155e-06
2.207989293e-07
4.988519661e-08
2.536184512e-08
2.03490614e-08
1.891326564e-08
1.840653213e-08
1.821504447e-08
1.814723929e-08
1.813161582e-08
1.813846725e-08
1.8153562e-08
1.81703668e-08
1.818609118e-08
1.819982792e-08
1.82115556e-08
1.822155883e-08
1.8230137e-08
1.823751836e-08
1.824387816e-08
1.824937221e-08
1.825414827e-08
1.825834019e-08
1.826206032e-08
1.826539731e-08
1.826841876e-08
1.827117579e-08
1.827370754e-08
1.827604456e-08
1.827821129e-08
1.828022768e-08
1.828211031e-08
1.828387318e-08
1.828552824e-08
1.828708574e-08
1.82885546e-08
1.828994268e-08
1.829125716e-08
1.829250507e-08
1.829369428e-08