/*--------------------------------*- C++ -*----------------------------------*\
  =========                 |
  \\      /  F ield         | OpenFOAM: The Open Source CFD Toolbox
   \\    /   O peration     | Website:  https://openfoam.org
    \\  /    A nd           | Version:  10
     \\/     M anipulation  |
\*---------------------------------------------------------------------------*/
FoamFile
{
    format      ascii;
    class       volScalarField;
    location    "0.02499901733";
    object      CH3_0;
}
// * * * * * * * * * * * * * * * * * * * * * * * * * * * * * * * * * * * * * //

dimensions      [0 0 0 0 0 0 0];

internalField   nonuniform List<scalar> 
5170
(
1.236876488e-09
1.234676361e-09
1.220308535e-09
1.119454643e-09
8.653093397e-11
2.479348146e-09
2.472444856e-09
2.44174999e-09
2.286065634e-09
1.410390891e-09
3.721075356e-09
3.70956616e-09
3.664528202e-09
3.477952173e-09
2.74735436e-09
4.954518664e-09
4.938893812e-09
4.883027692e-09
4.683660571e-09
4.099510838e-09
6.177917383e-09
6.158859302e-09
6.09616261e-09
5.898797239e-09
5.460441438e-09
7.389592171e-09
7.368355672e-09
7.303070333e-09
7.121442606e-09
6.828605158e-09
8.588920104e-09
8.566627221e-09
8.502905551e-09
8.350511483e-09
8.202657902e-09
9.776539697e-09
9.75470572e-09
9.696418485e-09
9.584428804e-09
9.581342632e-09
1.095326244e-08
1.093315736e-08
1.088448231e-08
1.082335207e-08
1.096387302e-08
1.21205277e-08
1.210305374e-08
1.20667983e-08
1.206795782e-08
1.23502261e-08
1.327924309e-08
1.326531576e-08
1.324386148e-08
1.331847108e-08
1.373981898e-08
1.442951374e-08
1.442027554e-08
1.441853181e-08
1.457440824e-08
1.513103487e-08
1.557176163e-08
1.556837872e-08
1.559199749e-08
1.583576744e-08
1.652247135e-08
1.670641149e-08
1.671009203e-08
1.676414728e-08
1.710246062e-08
1.791288993e-08
1.783381363e-08
1.784601401e-08
1.793523893e-08
1.837386914e-08
1.93009247e-08
1.895405483e-08
1.8976377e-08
1.910727929e-08
1.965046582e-08
2.068371774e-08
2.006767189e-08
2.010190965e-08
2.027944383e-08
2.093016921e-08
2.206299383e-08
2.117541965e-08
2.12237665e-08
2.145575757e-08
2.221513669e-08
2.343479083e-08
2.227807222e-08
2.234319209e-08
2.263878976e-08
2.351162363e-08
2.481960959e-08
2.338776867e-08
2.351918148e-08
2.4181231e-08
2.694367938e-08
3.517414941e-08
2.949069222e-16
9.197897383e-17
0
1.435753373e-16
2.274097488e-16
2.95450529e-16
3.325234604e-16
3.011446934e-16
3.461922772e-16
2.912070176e-16
1.355538349e-16
2.203027757e-16
1.661176272e-16
1.496989322e-16
1.027305186e-16
0
6.82900589e-17
4.675193447e-17
2.35449766e-17
0
0
0
0
0
0
0
0
0
2.561954891e-12
0
0
0
0
4.521070514e-10
1.373663616e-09
2.710915961e-08
7.633250603e-10
1.530886879e-11
0
1.514518298e-07
1.644518469e-07
1.022571452e-08
1.242873866e-09
9.703397282e-08
4.117221496e-09
2.490055514e-08
1.238044153e-07
1.10554896e-07
4.823932884e-08
1.679950672e-09
2.239456778e-09
2.594279245e-08
2.613722634e-08
0
2.227291554e-09
2.053111906e-09
0
0
0
6.069799134e-10
7.046245595e-10
5.882364302e-10
0
9.935017395e-10
5.900322364e-09
4.462156402e-09
8.361191246e-10
4.15554559e-10
2.402009759e-09
6.23619235e-09
6.866074963e-09
2.684268569e-09
2.195373883e-09
4.838846645e-09
5.775394973e-09
6.473611516e-09
5.209724008e-09
4.845940898e-09
5.989693858e-09
5.426922947e-09
5.070308208e-09
5.870765708e-09
5.801818999e-09
5.667795743e-09
5.100732873e-09
4.224427121e-09
5.158450418e-09
5.244393993e-09
4.893054942e-09
4.734612176e-09
7.239798574e-09
5.763905973e-09
4.765219349e-09
4.402739639e-09
4.316804612e-09
3.514492513e-07
1.8550746e-07
2.623818759e-08
8.395943006e-09
4.269834823e-10
2.470599874e-08
2.679435872e-08
6.07280171e-08
5.581981156e-07
5.338484709e-06
2.682317389e-08
3.443881333e-08
1.296039383e-07
1.025173883e-06
7.093373699e-06
3.031938936e-08
4.794496733e-08
2.177108125e-07
1.29001253e-06
7.060522583e-06
3.577201913e-08
6.752579817e-08
3.082488799e-07
1.460710544e-06
6.708213991e-06
4.493095156e-08
1.013618798e-07
4.754593555e-07
1.635567753e-06
6.607970524e-06
5.809155181e-08
1.410508142e-07
5.352314553e-07
1.852347095e-06
6.829795208e-06
7.615123196e-08
1.88625399e-07
6.245408712e-07
2.108470519e-06
7.138347826e-06
1.008235547e-07
2.443450808e-07
7.432040476e-07
2.395030238e-06
7.460268661e-06
1.34033091e-07
3.143084234e-07
8.867223904e-07
2.656282253e-06
7.598517949e-06
1.757313182e-07
3.76097919e-07
1.055973012e-06
2.937226538e-06
7.839062807e-06
2.3562925e-07
4.799000058e-07
1.262041525e-06
3.278157146e-06
8.293680592e-06
2.981813878e-07
6.052535779e-07
1.500276153e-06
3.657437822e-06
8.786807e-06
3.858592093e-07
7.618977667e-07
1.758441455e-06
4.030333501e-06
9.198512835e-06
5.358078592e-07
9.625522428e-07
2.059399231e-06
4.46887892e-06
9.76905713e-06
7.565288006e-07
1.239740185e-06
2.418785222e-06
4.969804126e-06
1.040207037e-05
1.017789584e-06
1.560634471e-06
2.90491597e-06
5.769919156e-06
1.12581174e-05
1.433673539e-06
2.021831689e-06
3.512948062e-06
6.573058507e-06
1.267908479e-05
1.95718324e-06
2.589539532e-06
4.189104371e-06
7.839408856e-06
1.48949672e-05
2.663158336e-06
3.424864011e-06
5.398707283e-06
9.44412178e-06
1.722403252e-05
3.55492671e-06
4.371244694e-06
6.375620913e-06
1.006731141e-05
1.634185045e-05
4.466085262e-06
5.124161171e-06
6.611865413e-06
9.014360584e-06
1.250419143e-05
4.478958319e-06
4.810566199e-06
5.525373482e-06
6.573824865e-06
7.900937134e-06
3.275575117e-06
3.385268018e-06
3.597169116e-06
3.876022792e-06
4.173506695e-06
1.8529581e-06
1.870992148e-06
1.899054657e-06
1.922350273e-06
1.925760288e-06
8.898751997e-07
8.880659382e-07
8.795111235e-07
8.604172275e-07
8.296281965e-07
3.862513783e-07
3.826854581e-07
3.738781971e-07
3.595227538e-07
3.39889228e-07
1.672379648e-07
1.653043384e-07
1.607032393e-07
1.534036603e-07
1.43949347e-07
7.222471026e-08
7.12984822e-08
6.913945757e-08
6.591210288e-08
6.174047392e-08
3.162622982e-08
3.124230908e-08
3.035937486e-08
2.906323358e-08
2.745994815e-08
1.386507739e-08
1.372277925e-08
1.336660481e-08
1.28316026e-08
1.215062085e-08
6.24645802e-09
6.251597211e-09
6.185788427e-09
5.990352706e-09
5.723413617e-09
3.202599749e-09
3.178972858e-09
3.122389627e-09
3.037573762e-09
2.929647267e-09
1.866692402e-09
1.858292606e-09
1.8394322e-09
1.81201934e-09
1.778216408e-09
1.384948335e-09
1.384879188e-09
1.384676406e-09
1.384618804e-09
1.384249014e-09
1.32553781e-09
1.330917137e-09
1.342953532e-09
1.36140909e-09
1.3860871e-09
1.468736535e-09
1.478483112e-09
1.500193535e-09
1.533080149e-09
1.576975558e-09
1.63449669e-09
1.647672783e-09
1.676865785e-09
1.721191967e-09
1.780217979e-09
1.656706544e-09
1.673026585e-09
1.708930106e-09
1.763337592e-09
1.835897344e-09
1.501879372e-09
1.518836064e-09
1.55586895e-09
1.61170363e-09
1.685513882e-09
1.135539329e-09
1.150208397e-09
1.180625118e-09
1.225974299e-09
1.28512845e-09
6.610068031e-10
6.721601056e-10
6.953820001e-10
7.297652317e-10
7.752908769e-10
2.349963529e-10
2.433443458e-10
2.613472625e-10
2.885275676e-10
3.251679255e-10
5.804897161e-11
6.169433772e-11
6.948726366e-11
8.109039037e-11
9.648909705e-11
0
0
0
0
0
0
0
0
0
0
0
0
0
0
0
0
0
0
0
0
0
0
0
0
0
0
0
0
0
0
0
0
0
0
0
1.32515568e-11
1.205124442e-11
9.66990694e-12
6.59010318e-12
3.40363142e-12
1.426248704e-10
1.396121529e-10
1.33411158e-10
1.246696467e-10
1.137410781e-10
2.965954791e-10
2.914587261e-10
2.806512005e-10
2.650021354e-10
2.450773926e-10
4.24471129e-10
4.176021445e-10
4.030322517e-10
3.817141034e-10
3.539793827e-10
5.154105671e-10
5.068305711e-10
4.885426934e-10
4.617237523e-10
4.272607507e-10
6.154517185e-10
6.054756354e-10
5.841996646e-10
5.52959552e-10
5.128531198e-10
7.847433647e-10
7.728420048e-10
7.475071953e-10
7.10396168e-10
6.626991413e-10
1.052410156e-09
1.037897364e-09
1.00700827e-09
9.617512104e-10
9.034923172e-10
1.440138589e-09
1.421779765e-09
1.382567453e-09
1.324679394e-09
1.249070031e-09
1.950856142e-09
1.927893999e-09
1.878929047e-09
1.806839653e-09
1.713385814e-09
2.630536682e-09
2.602739843e-09
2.543542346e-09
2.456602581e-09
2.344302175e-09
3.4559174e-09
3.426079621e-09
3.362376627e-09
3.268487434e-09
3.146874647e-09
4.286298415e-09
4.254847502e-09
4.187663967e-09
4.088236445e-09
3.957855314e-09
5.029201678e-09
5.000845028e-09
4.940349241e-09
4.850420324e-09
4.730739996e-09
6.375220902e-09
6.344266188e-09
6.278255102e-09
6.180585563e-09
6.052650939e-09
8.289635984e-09
8.249851554e-09
8.162938169e-09
8.031150757e-09
7.856146148e-09
1.019492194e-08
1.015056197e-08
1.005643625e-08
9.917649492e-09
9.73615781e-09
1.163222445e-08
1.158405061e-08
1.148189965e-08
1.133229802e-08
1.113986703e-08
1.30772271e-08
1.304500062e-08
1.297743134e-08
1.287957351e-08
1.275475559e-08
1.49607728e-08
1.494264504e-08
1.490576437e-08
1.485391822e-08
1.478948584e-08
2.408658835e-05
2.739851578e-05
2.317431697e-05
1.948187696e-05
1.815653497e-05
1.800829294e-05
1.762418982e-05
1.712224684e-05
1.639741578e-05
1.615482355e-05
1.64953062e-05
1.68516228e-05
1.704810383e-05
1.753664215e-05
1.807263488e-05
1.888095526e-05
2.081643172e-05
2.407702098e-05
2.702161152e-05
2.315592112e-05
1.571048709e-05
8.944472906e-06
4.368835615e-06
1.920006427e-06
8.053872356e-07
3.254007069e-07
1.372263333e-07
5.883302895e-08
2.637609723e-08
1.167194845e-08
5.53323687e-09
2.855154067e-09
1.75327038e-09
1.386771499e-09
1.40616242e-09
1.611263229e-09
1.82714421e-09
1.894947922e-09
1.744160893e-09
1.33392464e-09
8.140662823e-10
3.572519188e-10
1.100118762e-10
0
0
0
0
0
0
0
1.727290636e-12
1.046665739e-10
2.286860402e-10
3.310577735e-10
3.993367088e-10
4.805688806e-10
6.239586577e-10
8.558537213e-10
1.185842233e-09
1.635953996e-09
2.251777073e-09
3.046561941e-09
3.848517449e-09
4.629524404e-09
5.944488722e-09
7.712942786e-09
9.579487155e-09
1.097991529e-08
1.265054849e-08
1.473387215e-08
7.023086365e-05
6.720899867e-06
2.504398072e-07
7.121107821e-08
9.30103865e-09
9.255465862e-05
0.0006659808383
3.824480664e-05
1.147270561e-06
1.178310482e-07
6.932171444e-05
0.000334183822
3.327120099e-05
1.839087878e-06
3.849428343e-07
5.185320718e-05
0.0002123264871
0.0002558188537
1.965242997e-05
1.291461608e-06
4.825628851e-05
0.0002194925609
0.0009003050404
8.946020836e-05
6.346442214e-06
4.683226702e-05
0.0002064036875
0.0008730109987
0.0001119087713
1.03473551e-05
4.339826249e-05
0.000179380585
0.0006847983882
0.0001036681532
1.196725733e-05
3.944048936e-05
0.0001480697124
0.000503446806
0.000131679107
1.754550713e-05
3.622315398e-05
0.0001281872662
0.0004286566169
0.000585877927
8.350387479e-05
3.450260802e-05
0.0001188641615
0.0003956068288
0.0008232327821
0.00013404234
3.419748826e-05
0.0001130018884
0.0003693140038
0.0008759151629
0.0001589689825
3.387092891e-05
0.0001077445464
0.0003391558761
0.0008327583785
0.0001702188288
3.343143649e-05
0.0001047504799
0.0003051639432
0.0007637195292
0.0003776036763
3.339138434e-05
9.929694107e-05
0.0002807719935
0.0007083829923
0.000617564923
3.343870792e-05
9.52738973e-05
0.0002650549166
0.0006594531155
0.0007465734501
3.393521255e-05
9.266660017e-05
0.0002517129913
0.0006134668621
0.0008026629837
3.658017533e-05
9.615988986e-05
0.0002499590806
0.000597365072
0.0008081981985
4.162727155e-05
0.0001072913984
0.0002736981105
0.0006309361929
0.0007213048763
4.556608372e-05
0.0001086512062
0.0002506825172
0.000505922357
0.0001852459106
3.537807151e-05
6.841848234e-05
0.0001193171754
0.0001778925493
0.0001774158282
2.119955214e-05
3.229524485e-05
4.417927736e-05
5.084718142e-05
4.435915648e-05
1.071681224e-05
1.315559086e-05
1.440712432e-05
1.349933442e-05
1.029696209e-05
4.744877325e-06
4.918172118e-06
4.566665299e-06
3.744692439e-06
2.67197098e-06
1.95072404e-06
1.829334472e-06
1.555908127e-06
1.197366808e-06
8.33185635e-07
7.883672678e-07
7.042006506e-07
5.780086479e-07
4.372114418e-07
3.062816246e-07
3.118423505e-07
2.725325868e-07
2.217195839e-07
1.688203842e-07
1.21172453e-07
1.305867684e-07
1.139030346e-07
9.361971536e-08
7.265912522e-08
5.40742622e-08
5.59195284e-08
4.915291636e-08
4.078708283e-08
3.215815313e-08
2.473607838e-08
2.52865426e-08
2.287828525e-08
1.907317002e-08
1.514984598e-08
1.166499827e-08
1.117643157e-08
9.964296859e-09
8.766746183e-09
7.287245902e-09
5.847737531e-09
5.339372491e-09
4.887729936e-09
4.377677517e-09
3.772084162e-09
3.153395129e-09
2.779238961e-09
2.581089788e-09
2.360712767e-09
2.16468743e-09
1.945070415e-09
1.727299941e-09
1.667978046e-09
1.604598454e-09
1.541610596e-09
1.495934773e-09
1.391022477e-09
1.402375784e-09
1.425976873e-09
1.466903418e-09
1.528878636e-09
1.431075598e-09
1.493948365e-09
1.581728747e-09
1.69540356e-09
1.84497943e-09
1.654770729e-09
1.75560303e-09
1.895591776e-09
2.07277601e-09
2.283911102e-09
1.891434175e-09
2.029589731e-09
2.207879811e-09
2.429335132e-09
2.694943814e-09
1.982008459e-09
2.154761902e-09
2.362962229e-09
2.580948258e-09
2.80710053e-09
1.83486982e-09
1.996547813e-09
2.174857285e-09
2.362077458e-09
2.55646663e-09
1.413744734e-09
1.549119921e-09
1.693992535e-09
1.848446997e-09
2.011712763e-09
8.803952332e-10
9.951331988e-10
1.121781853e-09
1.264843269e-09
1.397551066e-09
4.129963844e-10
5.156590011e-10
6.065334569e-10
6.914489579e-10
7.725744489e-10
1.342994502e-10
1.755135008e-10
2.150317269e-10
2.548105315e-10
2.943358321e-10
1.171845034e-12
6.854159179e-12
1.456128519e-11
2.371706289e-11
3.321692107e-11
0
0
0
0
0
0
0
0
0
0
0
0
0
0
0
0
0
0
0
0
0
0
0
0
0
0
0
0
0
0
0
0
0
0
0
8.850360816e-11
6.483015627e-11
4.338100577e-11
2.475477777e-11
1.004192906e-11
2.006579883e-10
1.568017584e-10
1.14617757e-10
7.595388297e-11
4.172175726e-11
2.929283395e-10
2.307979689e-10
1.699765316e-10
1.131800103e-10
6.384005992e-11
3.537708529e-10
2.791078687e-10
2.068605835e-10
1.396764114e-10
8.200611615e-11
4.278712008e-10
3.426965421e-10
2.587108855e-10
1.807674489e-10
1.134107284e-10
5.60398768e-10
4.580044388e-10
3.572855036e-10
2.622608843e-10
1.769352275e-10
7.772904103e-10
6.487515655e-10
5.196537069e-10
3.934045657e-10
2.703445404e-10
1.081596215e-09
9.109008811e-10
7.402543726e-10
5.730767705e-10
4.146528857e-10
1.505785781e-09
1.289414025e-09
1.066639756e-09
8.455535295e-10
6.353069014e-10
2.096878129e-09
1.841101003e-09
1.578126237e-09
1.314357638e-09
1.060713914e-09
2.878422595e-09
2.599997875e-09
2.311585951e-09
2.023713729e-09
1.755986997e-09
3.666038417e-09
3.371796366e-09
3.023289626e-09
2.710646477e-09
2.418760626e-09
4.458249853e-09
4.174341074e-09
3.883806926e-09
3.594809136e-09
3.313327959e-09
5.758450375e-09
5.451036398e-09
5.132371559e-09
4.799502104e-09
4.438521689e-09
7.459064991e-09
7.064567719e-09
6.659144704e-09
6.248779161e-09
5.835872284e-09
9.298070543e-09
8.834526953e-09
8.350078427e-09
7.859461677e-09
7.386484562e-09
1.070301351e-08
1.027418547e-08
9.87058984e-09
9.506895178e-09
9.207910154e-09
1.246229626e-08
1.219909509e-08
1.199247655e-08
1.184268524e-08
1.173590654e-08
1.462224932e-08
1.44781234e-08
1.437758661e-08
1.431247203e-08
1.427321286e-08
6.642665368e-11
3.262246468e-09
4.340503388e-10
0
0
0
0
0
0
0
0
0
0
0
0
0
0
0
0
0
0
0
0
0
0
0
0
0
0
0
0
0
0
0
0
0
0
0
0
0
0
0
0
0
0
0
0
0
0
0
0
0
0
0
0
0
0
0
0
0
2.365677538e-09
2.120970293e-08
1.716267149e-09
1.287616227e-10
1.475354724e-12
0
0
0
0
0
0
0
0
0
0
0
0
0
0
0
0
0
0
0
0
0
0
0
0
0
0
0
0
0
0
0
0
0
0
0
0
0
0
0
0
0
0
0
0
0
0
0
0
0
0
0
0
0
0
0
1.351195226e-08
4.834573e-10
1.27504458e-09
4.211258794e-10
2.734183488e-10
2.398582218e-10
2.297070254e-10
2.255124591e-10
2.231362578e-10
2.212758471e-10
2.19496465e-10
2.177098451e-10
2.160014934e-10
2.145551548e-10
2.136098804e-10
2.133525139e-10
2.120388808e-10
2.093527127e-10
2.07267684e-10
2.057682106e-10
2.046974964e-10
2.038848365e-10
2.03220209e-10
2.026516518e-10
2.02156143e-10
2.017164261e-10
2.013194958e-10
2.009617414e-10
2.006371366e-10
2.003434773e-10
2.00075688e-10
1.998324179e-10
1.996174752e-10
1.994246628e-10
1.992502508e-10
1.990952947e-10
1.989563638e-10
1.988246443e-10
1.986979299e-10
1.985813289e-10
1.98476368e-10
1.983804294e-10
1.982946604e-10
1.982220766e-10
1.981536773e-10
1.980915631e-10
1.980296176e-10
1.979794579e-10
1.97928478e-10
1.978904085e-10
1.978584419e-10
1.978335107e-10
1.977993707e-10
1.977788378e-10
1.977091106e-10
1.97475037e-10
1.96733669e-10
1.953533072e-10
1.964078716e-10
2.030409995e-10
9.323581225e-08
3.886676386e-09
2.025614046e-09
8.730240947e-10
6.518791624e-10
5.948980188e-10
5.735341055e-10
5.628858952e-10
5.564192152e-10
5.519415369e-10
5.484717051e-10
5.455583974e-10
5.430445009e-10
5.409812113e-10
5.395561877e-10
5.389661072e-10
5.369632713e-10
5.331916977e-10
5.302257875e-10
5.280652046e-10
5.265021692e-10
5.253067742e-10
5.243228104e-10
5.234752779e-10
5.227328659e-10
5.220727775e-10
5.214793649e-10
5.209465049e-10
5.204660824e-10
5.200344768e-10
5.196444232e-10
5.192930837e-10
5.189844973e-10
5.187122871e-10
5.184681746e-10
5.182552991e-10
5.180673235e-10
5.178912628e-10
5.177227115e-10
5.175692122e-10
5.174327229e-10
5.173098149e-10
5.172025837e-10
5.171152427e-10
5.170389542e-10
5.169732385e-10
5.169096534e-10
5.16860088e-10
5.168092531e-10
5.167794537e-10
5.167557633e-10
5.167473554e-10
5.167241275e-10
5.167314471e-10
5.167114411e-10
5.167351837e-10
5.17013838e-10
5.193112639e-10
5.291735232e-10
5.432583005e-10
5.105290341e-07
3.143467586e-08
0
1.819181532e-09
1.0456161e-09
8.882378472e-10
8.465339464e-10
8.295836249e-10
8.204334128e-10
8.146475684e-10
8.106367386e-10
8.07696301e-10
8.055193894e-10
8.039859751e-10
8.03098789e-10
8.028566164e-10
8.011363443e-10
7.977038832e-10
7.94933346e-10
7.928934601e-10
7.914245264e-10
7.903110172e-10
7.894005482e-10
7.886170216e-10
7.879302505e-10
7.87320062e-10
7.867736553e-10
7.862848215e-10
7.858464298e-10
7.854545046e-10
7.851025624e-10
7.847875308e-10
7.845108581e-10
7.842684003e-10
7.840526699e-10
7.838656124e-10
7.837013398e-10
7.83549701e-10
7.834066161e-10
7.832784709e-10
7.831661321e-10
7.830649205e-10
7.829776792e-10
7.829077623e-10
7.828489262e-10
7.828009679e-10
7.827584873e-10
7.827259299e-10
7.826934911e-10
7.826803638e-10
7.826725047e-10
7.826814201e-10
7.826778193e-10
7.827110077e-10
7.827582664e-10
7.830352924e-10
7.841029421e-10
7.882974227e-10
7.998773668e-10
8.127537032e-10
1.013648496e-06
1.679153314e-07
1.366743949e-08
5.021856122e-09
1.547711713e-09
1.082346132e-09
1.00531866e-09
9.824707648e-10
9.723010505e-10
9.666577081e-10
9.631362221e-10
9.608168577e-10
9.59310286e-10
9.584493947e-10
9.581539e-10
9.583180804e-10
9.571629873e-10
9.545656694e-10
9.52416372e-10
9.508252466e-10
9.496975842e-10
9.488653617e-10
9.481977189e-10
9.476251635e-10
9.471232647e-10
9.466774697e-10
9.462798582e-10
9.459260265e-10
9.456098676e-10
9.453282161e-10
9.450762632e-10
9.448513106e-10
9.446527598e-10
9.444782394e-10
9.44322808e-10
9.441868744e-10
9.44066774e-10
9.439575102e-10
9.438567087e-10
9.437678819e-10
9.436908929e-10
9.436214613e-10
9.435615011e-10
9.435117904e-10
9.434683449e-10
9.434334521e-10
9.434051962e-10
9.433844648e-10
9.433645282e-10
9.433553976e-10
9.433490231e-10
9.433556483e-10
9.433558834e-10
9.433862752e-10
9.434503608e-10
9.437505621e-10
9.447932792e-10
9.482481261e-10
9.561303931e-10
9.638803257e-10
1.017496045e-06
4.561905926e-07
8.274901921e-08
6.894092821e-09
2.884354157e-09
1.343309628e-09
1.109740938e-09
1.06113815e-09
1.045291109e-09
1.038435002e-09
1.034972695e-09
1.033059191e-09
1.031992576e-09
1.031494284e-09
1.031433824e-09
1.031685509e-09
1.030805259e-09
1.02874827e-09
1.02703031e-09
1.025768964e-09
1.024903324e-09
1.024296506e-09
1.023829986e-09
1.023437897e-09
1.023095009e-09
1.022791569e-09
1.022521452e-09
1.022280889e-09
1.02206624e-09
1.021874895e-09
1.021703343e-09
1.021549552e-09
1.021412594e-09
1.021290619e-09
1.021180865e-09
1.021083027e-09
1.020995161e-09
1.020915169e-09
1.020841918e-09
1.020776561e-09
1.02071872e-09
1.020665871e-09
1.020618917e-09
1.02057758e-09
1.020539829e-09
1.020507053e-09
1.020478704e-09
1.020455706e-09
1.020434949e-09
1.020418986e-09
1.020404507e-09
1.020397545e-09
1.020388427e-09
1.020397359e-09
1.020432201e-09
1.020614306e-09
1.021235443e-09
1.023118192e-09
1.026931433e-09
1.030419908e-09
1.419926578e-06
6.316054379e-07
3.152217527e-07
4.041766037e-08
9.801879991e-09
3.006223564e-09
1.336253968e-09
1.124907885e-09
1.082334654e-09
1.069390666e-09
1.064389362e-09
1.062200535e-09
1.061213677e-09
1.060846391e-09
1.060855532e-09
1.061073705e-09
1.060243705e-09
1.058379903e-09
1.056800002e-09
1.055626116e-09
1.054828269e-09
1.05429169e-09
1.053901259e-09
1.053586999e-09
1.053317957e-09
1.053082718e-09
1.052875169e-09
1.052690601e-09
1.052526312e-09
1.052379386e-09
1.052247068e-09
1.052127897e-09
1.052020364e-09
1.051923233e-09
1.051834775e-09
1.051754336e-09
1.051680878e-09
1.051613263e-09
1.051550871e-09
1.051493745e-09
1.051441501e-09
1.051392945e-09
1.051348208e-09
1.051307056e-09
1.051268827e-09
1.051233672e-09
1.051201186e-09
1.051171802e-09
1.051144685e-09
1.051120243e-09
1.051097166e-09
1.051077758e-09
1.051057569e-09
1.051044448e-09
1.051039128e-09
1.051091518e-09
1.051317087e-09
1.052020086e-09
1.053380541e-09
1.054605405e-09
7.435421199e-06
8.902631755e-07
8.000760457e-07
1.942427769e-07
1.951415148e-08
1.181021654e-08
1.939828999e-09
1.213819743e-09
1.113489778e-09
1.087079258e-09
1.077616726e-09
1.073780219e-09
1.072190655e-09
1.071609807e-09
1.071523572e-09
1.071649951e-09
1.070778708e-09
1.068935354e-09
1.067345965e-09
1.066134541e-09
1.065288541e-09
1.064714025e-09
1.064303464e-09
1.063983163e-09
1.063716692e-09
1.063488424e-09
1.063290143e-09
1.063116009e-09
1.062961899e-09
1.062824373e-09
1.062700824e-09
1.062589298e-09
1.062488145e-09
1.062396111e-09
1.062311811e-09
1.062234471e-09
1.062163163e-09
1.062097125e-09
1.062035763e-09
1.061978733e-09
1.061925653e-09
1.061875876e-09
1.061829214e-09
1.06178541e-09
1.061744185e-09
1.061705427e-09
1.061668874e-09
1.061634524e-09
1.061602047e-09
1.061571508e-09
1.061542256e-09
1.061514674e-09
1.061486179e-09
1.061456867e-09
1.061420775e-09
1.061385252e-09
1.061375214e-09
1.061479969e-09
1.061767693e-09
1.062088294e-09
1.416347929e-05
1.290357301e-06
1.306131623e-06
5.88450638e-07
8.78941997e-08
7.684175654e-09
3.48597187e-09
1.490045498e-09
1.18055114e-09
1.111444205e-09
1.08939544e-09
1.080913613e-09
1.07741542e-09
1.076010527e-09
1.075547868e-09
1.075473979e-09
1.074500379e-09
1.072606577e-09
1.070961828e-09
1.069680733e-09
1.068755254e-09
1.068105502e-09
1.067633685e-09
1.067266983e-09
1.066966135e-09
1.066712502e-09
1.066495575e-09
1.066307751e-09
1.066143186e-09
1.065997454e-09
1.065867267e-09
1.06575012e-09
1.065644091e-09
1.065547607e-09
1.065459336e-09
1.065378263e-09
1.065303451e-09
1.065234147e-09
1.065169686e-09
1.065109575e-09
1.065053345e-09
1.065000538e-09
1.064950835e-09
1.064903939e-09
1.064859598e-09
1.064817627e-09
1.064777838e-09
1.064740092e-09
1.064704146e-09
1.064669899e-09
1.064636879e-09
1.0646045e-09
1.064570414e-09
1.064530577e-09
1.064474847e-09
1.064391724e-09
1.064274072e-09
1.064145126e-09
1.064063605e-09
1.06410213e-09
1.945571409e-05
1.820394011e-06
1.231110278e-06
1.471387607e-06
3.072895766e-07
2.909576084e-08
1.175079284e-08
2.164840707e-09
1.271898673e-09
1.134145332e-09
1.09800317e-09
1.085388082e-09
1.080350699e-09
1.078258415e-09
1.077440774e-09
1.077158673e-09
1.076067356e-09
1.074101006e-09
1.072393168e-09
1.071045062e-09
1.070044722e-09
1.069318919e-09
1.068777976e-09
1.068352469e-09
1.06800313e-09
1.067710456e-09
1.067462776e-09
1.06725093e-09
1.067067403e-09
1.066906384e-09
1.066763577e-09
1.066635806e-09
1.066520673e-09
1.066416291e-09
1.066321141e-09
1.066233988e-09
1.066153789e-09
1.066079674e-09
1.066010893e-09
1.065946833e-09
1.065886954e-09
1.065830801e-09
1.065777995e-09
1.065728202e-09
1.065681148e-09
1.065636582e-09
1.065594317e-09
1.065554162e-09
1.065515866e-09
1.0654792e-09
1.065443662e-09
1.065408119e-09
1.065369835e-09
1.065322623e-09
1.065254179e-09
1.065147369e-09
1.064988232e-09
1.064786469e-09
1.064604832e-09
1.0645841e-09
2.347003189e-05
2.506768351e-06
9.609685453e-07
2.957928019e-06
8.378549764e-07
9.129437145e-08
9.250446518e-09
3.450384621e-09
1.46269195e-09
1.169915964e-09
1.109556401e-09
1.090924791e-09
1.083597093e-09
1.08038517e-09
1.078957758e-09
1.078327275e-09
1.077045615e-09
1.074974446e-09
1.073198001e-09
1.071791335e-09
1.070728794e-09
1.069937068e-09
1.069331785e-09
1.068847263e-09
1.068445751e-09
1.068108641e-09
1.067824603e-09
1.067583842e-09
1.067377472e-09
1.067198201e-09
1.067040506e-09
1.066900339e-09
1.066774711e-09
1.06666134e-09
1.066558433e-09
1.066464533e-09
1.066378433e-09
1.066299119e-09
1.066225736e-09
1.066157568e-09
1.066094005e-09
1.066034547e-09
1.065978765e-09
1.065926282e-09
1.065876783e-09
1.065829964e-09
1.065785616e-09
1.065743507e-09
1.065703364e-09
1.065664845e-09
1.065627302e-09
1.065589169e-09
1.065547072e-09
1.065493641e-09
1.065415865e-09
1.06529631e-09
1.065122244e-09
1.064904126e-09
1.064706496e-09
1.064697497e-09
5.494352328e-05
6.34895863e-06
1.151672654e-06
4.164988918e-06
1.882458959e-06
2.389493369e-07
1.912450258e-08
5.236635511e-09
1.781328328e-09
1.236710321e-09
1.13075185e-09
1.100313932e-09
1.088504601e-09
1.083187285e-09
1.080673698e-09
1.079460224e-09
1.077871729e-09
1.075653479e-09
1.073804029e-09
1.072350378e-09
1.071242191e-09
1.070399637e-09
1.069740746e-09
1.06920323e-09
1.068751481e-09
1.068368837e-09
1.068045708e-09
1.067772964e-09
1.067541143e-09
1.067341699e-09
1.067167806e-09
1.067014372e-09
1.066877665e-09
1.066754902e-09
1.066643941e-09
1.066543075e-09
1.06645091e-09
1.066366289e-09
1.066288243e-09
1.066215958e-09
1.066148754e-09
1.066086065e-09
1.066027408e-09
1.065972353e-09
1.065920538e-09
1.065871622e-09
1.065825364e-09
1.065781499e-09
1.065739716e-09
1.065699533e-09
1.065660089e-09
1.06561943e-09
1.065573499e-09
1.06551417e-09
1.06542858e-09
1.06530076e-09
1.065121166e-09
1.064903638e-09
1.064712898e-09
1.064742032e-09
9.902798922e-05
1.28528514e-05
1.813812881e-06
4.008896684e-06
3.687088328e-06
5.29885143e-07
4.46243158e-08
1.192512264e-08
2.179232525e-09
1.28025643e-09
1.138734146e-09
1.103740842e-09
1.090755392e-09
1.084792193e-09
1.081824771e-09
1.080287218e-09
1.078484878e-09
1.076161122e-09
1.074268462e-09
1.072794738e-09
1.07166606e-09
1.070794195e-09
1.070098723e-09
1.069520454e-09
1.069026206e-09
1.068601744e-09
1.068240161e-09
1.067934328e-09
1.067675403e-09
1.067454289e-09
1.067263105e-09
1.067095702e-09
1.066947499e-09
1.066815108e-09
1.066695963e-09
1.066588061e-09
1.066489797e-09
1.066399859e-09
1.066317163e-09
1.066240802e-09
1.066170013e-09
1.066104154e-09
1.066042681e-09
1.065985115e-09
1.065931049e-09
1.06588012e-09
1.065832042e-09
1.065786506e-09
1.065743149e-09
1.065701314e-09
1.065659884e-09
1.065616538e-09
1.065566594e-09
1.06550146e-09
1.065408827e-09
1.065274726e-09
1.065093046e-09
1.064880797e-09
1.064702969e-09
1.064782559e-09
0.0001333400202
1.964172169e-05
2.834889922e-06
3.545202415e-06
5.895277781e-06
8.654905914e-07
7.914541426e-08
1.654614496e-08
2.977064127e-09
1.400035757e-09
1.166568289e-09
1.114198305e-09
1.095870626e-09
1.087596934e-09
1.083432459e-09
1.081219012e-09
1.079029897e-09
1.076535476e-09
1.074591909e-09
1.073113861e-09
1.071987971e-09
1.071111567e-09
1.070401744e-09
1.069800932e-09
1.069278086e-09
1.068821343e-09
1.068426752e-09
1.0680901e-09
1.067804419e-09
1.067561164e-09
1.06735206e-09
1.067170179e-09
1.067010156e-09
1.066867964e-09
1.066740566e-09
1.066625624e-09
1.066521295e-09
1.0664261e-09
1.066338827e-09
1.066258467e-09
1.066184171e-09
1.066115216e-09
1.066050993e-09
1.065990978e-09
1.065934729e-09
1.065881857e-09
1.065832018e-09
1.065784847e-09
1.0657399e-09
1.065696328e-09
1.065652732e-09
1.065606423e-09
1.06555223e-09
1.065481375e-09
1.065382268e-09
1.065243056e-09
1.065060867e-09
1.064855144e-09
1.064691284e-09
1.064821131e-09
0.0001574230508
2.578074639e-05
4.119951112e-06
4.617590401e-06
6.096699333e-06
8.6865649e-07
8.88828396e-08
1.850132607e-08
4.99584327e-09
1.901836171e-09
1.275093488e-09
1.146084613e-09
1.108406384e-09
1.093377676e-09
1.086255544e-09
1.082576728e-09
1.079626708e-09
1.076815196e-09
1.074773367e-09
1.073288476e-09
1.07218305e-09
1.071326304e-09
1.070626251e-09
1.070024463e-09
1.06949124e-09
1.069016627e-09
1.068599302e-09
1.068238169e-09
1.06792902e-09
1.067664992e-09
1.06743837e-09
1.067242043e-09
1.067070152e-09
1.066918137e-09
1.066782512e-09
1.066660601e-09
1.066550312e-09
1.066449979e-09
1.066358251e-09
1.066274007e-09
1.066196309e-09
1.066124358e-09
1.066057481e-09
1.065995111e-09
1.06593677e-09
1.065882031e-09
1.065830484e-09
1.065781697e-09
1.065735118e-09
1.065689702e-09
1.065643758e-09
1.065594238e-09
1.065535615e-09
1.065459152e-09
1.065354113e-09
1.065210745e-09
1.065029084e-09
1.064830223e-09
1.064679614e-09
1.064853051e-09
0.0001675588391
2.923191203e-05
6.781408761e-06
2.166663028e-05
5.060220832e-06
5.863419307e-07
6.850295825e-08
1.078551585e-08
4.93362584e-09
2.198006416e-09
1.376820095e-09
1.169550737e-09
1.115542126e-09
1.096436541e-09
1.087796291e-09
1.083318702e-09
1.079868853e-09
1.076850344e-09
1.074760381e-09
1.073299153e-09
1.072239233e-09
1.071425641e-09
1.070757804e-09
1.070176055e-09
1.069651615e-09
1.069175773e-09
1.06874896e-09
1.068372705e-09
1.068045925e-09
1.067764353e-09
1.067521814e-09
1.067311772e-09
1.067128345e-09
1.066966688e-09
1.06682298e-09
1.066694241e-09
1.066578135e-09
1.066472806e-09
1.066376757e-09
1.066288751e-09
1.066207761e-09
1.066132918e-09
1.066063492e-09
1.065998867e-09
1.065938518e-09
1.065881971e-09
1.065828758e-09
1.065778362e-09
1.065730093e-09
1.065682698e-09
1.0656342e-09
1.065581214e-09
1.065517972e-09
1.06543592e-09
1.065325325e-09
1.065178483e-09
1.064997975e-09
1.064805907e-09
1.064667237e-09
1.064876297e-09
0.0001473108372
2.449289261e-05
5.418574899e-06
1.352402414e-05
2.115509248e-06
2.465661277e-07
3.35147342e-08
4.384114948e-09
7.696591251e-09
3.732474433e-09
1.901277599e-09
1.301856498e-09
1.15051136e-09
1.108188125e-09
1.092590999e-09
1.085350007e-09
1.080576825e-09
1.077004643e-09
1.07472092e-09
1.073227412e-09
1.072198865e-09
1.071434041e-09
1.070813361e-09
1.07027101e-09
1.069776378e-09
1.06931951e-09
1.06889947e-09
1.068517523e-09
1.068177992e-09
1.067881187e-09
1.067623608e-09
1.067399927e-09
1.067204637e-09
1.067032866e-09
1.066880592e-09
1.066744589e-09
1.066622288e-09
1.06651164e-09
1.066410994e-09
1.066318992e-09