/*--------------------------------*- C++ -*----------------------------------*\
  =========                 |
  \\      /  F ield         | OpenFOAM: The Open Source CFD Toolbox
   \\    /   O peration     | Website:  https://openfoam.org
    \\  /    A nd           | Version:  10
     \\/     M anipulation  |
\*---------------------------------------------------------------------------*/
FoamFile
{
    format      ascii;
    class       volScalarField;
    location    "0.02499901733";
    object      CH3CHO;
}
// * * * * * * * * * * * * * * * * * * * * * * * * * * * * * * * * * * * * * //

dimensions      [0 0 0 0 0 0 0];

internalField   nonuniform List<scalar> 
5170
(
0
0
0
0
0
0
0
0
0
0
0
0
0
0
0
0
0
0
0
0
0
0
0
0
0
0
0
0
0
0
0
0
0
0
0
0
0
0
0
0
0
0
0
0
0
0
0
0
0
0
0
0
0
0
0
0
0
0
0
0
0
0
0
0
0
0
0
0
0
0
0
0
0
0
0
0
0
0
0
0
0
0
0
0
0
0
0
0
0
0
0
0
0
2.494518769e-13
1.422222161e-12
4.588911463e-13
3.162220689e-12
2.62680643e-11
1.869583184e-10
9.090188558e-10
0
1.173199398e-22
0
4.452379258e-22
5.024850736e-22
5.720840576e-23
3.369638998e-22
2.947049647e-22
3.96361879e-22
1.903098965e-22
7.836216126e-23
1.634042336e-22
1.239500092e-22
1.097657483e-22
6.186455899e-23
2.194320982e-23
4.751103499e-23
3.478837353e-23
1.71249197e-23
7.881380069e-24
0
2.99767114e-26
0
0
0
0
0
0
0
0
0
0
0
0
0
0
0
0
0
0
0
0
0
0
0
0
0
0
0
0
0
0
0
0
0
0
0
0
0
0
0
0
0
0
0
0
0
0
0
0
0
0
0
0
0
0
0
0
0
0
0
0
0
0
0
0
0
0
0
0
6.186689593e-11
0
0
0
0
1.491530249e-08
2.473207366e-09
3.014676087e-10
1.282099028e-11
2.787128153e-13
2.205924024e-11
1.735311147e-10
2.681202042e-09
3.998021788e-08
5.375853554e-07
1.28396816e-10
8.791602252e-10
1.092513288e-08
1.173322245e-07
9.363136569e-07
4.553180938e-10
2.815410794e-09
2.897803816e-08
2.392843666e-07
1.319546474e-06
1.254988292e-09
7.040967732e-09
6.114470222e-08
4.003734299e-07
1.616766869e-06
2.978702482e-09
1.52439007e-08
1.125403763e-07
5.842178428e-07
1.806359023e-06
6.456644714e-09
3.040458284e-08
1.887736829e-07
7.757868682e-07
1.962050554e-06
1.304268958e-08
5.6230595e-08
2.909872264e-07
9.726363083e-07
2.143537032e-06
2.48536403e-08
9.732528219e-08
4.191176605e-07
1.173063448e-06
2.331508917e-06
4.527116476e-08
1.591488992e-07
5.693359934e-07
1.365189924e-06
2.480045778e-06
7.928995826e-08
2.461201157e-07
7.342339651e-07
1.539789063e-06
2.579494048e-06
1.342381782e-07
3.618122513e-07
9.05284669e-07
1.691707247e-06
2.642113031e-06
2.265638543e-07
5.071738826e-07
1.075344272e-06
1.826795019e-06
2.692424852e-06
3.604413567e-07
6.756659395e-07
1.243683671e-06
1.952336152e-06
2.743314731e-06
5.456164297e-07
8.674072181e-07
1.414207543e-06
2.075413727e-06
2.799950911e-06
7.836616865e-07
1.083478427e-06
1.592280224e-06
2.202295519e-06
2.864847274e-06
1.056166294e-06
1.323416587e-06
1.78678521e-06
2.344555428e-06
2.948941708e-06
1.377844107e-06
1.607634438e-06
2.022299282e-06
2.533650561e-06
3.097649304e-06
1.764866428e-06
1.969111987e-06
2.361634612e-06
2.875540005e-06
3.473411488e-06
2.303592474e-06
2.521064289e-06
2.968151262e-06
3.604017119e-06
4.41731114e-06
3.146791574e-06
3.398714217e-06
3.929048499e-06
4.698045346e-06
5.685334844e-06
4.33274676e-06
4.568252664e-06
5.055210141e-06
5.735530002e-06
6.5637466e-06
5.380733566e-06
5.524155524e-06
5.82280173e-06
6.233178353e-06
6.710026829e-06
5.723902493e-06
5.785919448e-06
5.91202085e-06
6.077542166e-06
6.25538769e-06
5.400606537e-06
5.413989412e-06
5.436943767e-06
5.458159693e-06
5.465244631e-06
4.706284657e-06
4.698084833e-06
4.676032094e-06
4.636538615e-06
4.575795849e-06
3.907120275e-06
3.892236456e-06
3.857363461e-06
3.80191427e-06
3.725629196e-06
3.195193524e-06
3.180550936e-06
3.146690208e-06
3.094234734e-06
3.024120983e-06
2.583810035e-06
2.571267675e-06
2.542573307e-06
2.498607021e-06
2.440524743e-06
2.0697673e-06
2.059719982e-06
2.036855882e-06
2.001988406e-06
1.956151711e-06
1.638400008e-06
1.630678215e-06
1.61313103e-06
1.586411781e-06
1.551345267e-06
1.276176496e-06
1.270436865e-06
1.257375716e-06
1.237470379e-06
1.211345403e-06
9.731604629e-07
9.690248947e-07
9.595768086e-07
9.451466426e-07
9.261880054e-07
7.224092005e-07
7.195256881e-07
7.128985743e-07
7.027421807e-07
6.893772776e-07
5.191239137e-07
5.171874793e-07
5.127003345e-07
5.057932349e-07
4.966870009e-07
3.594902707e-07
3.582450988e-07
3.553298454e-07
3.508182624e-07
3.448577494e-07
2.393153574e-07
2.385528437e-07
2.3674428e-07
2.339274902e-07
2.301974368e-07
1.531950872e-07
1.527515023e-07
1.516828738e-07
1.500061079e-07
1.47779955e-07
9.465993089e-08
9.441480264e-08
9.381310064e-08
9.28609086e-08
9.159310801e-08
5.696867191e-08
5.683916367e-08
5.651459146e-08
5.599615287e-08
5.53036751e-08
3.396198006e-08
3.38954992e-08
3.372536244e-08
3.345111931e-08
3.308359061e-08
2.061559017e-08
2.058114984e-08
2.049184048e-08
2.034699941e-08
2.01523169e-08
1.321341362e-08
1.319425481e-08
1.314483722e-08
1.30647796e-08
1.295700119e-08
9.239053659e-09
9.226802735e-09
9.196157914e-09
9.147065085e-09
9.08101982e-09
7.120857965e-09
7.111714316e-09
7.089805175e-09
7.05530912e-09
7.009028775e-09
5.951542179e-09
5.9439308e-09
5.926343843e-09
5.89908575e-09
5.862623515e-09
5.244517436e-09
5.237843885e-09
5.222764531e-09
5.19962859e-09
5.168744994e-09
4.756988658e-09
4.751036062e-09
4.737751698e-09
4.717482305e-09
4.690457343e-09
4.376951412e-09
4.371631187e-09
4.359811865e-09
4.341818499e-09
4.317834868e-09
4.054272349e-09
4.049512104e-09
4.038961079e-09
4.022913655e-09
4.001523452e-09
3.768408219e-09
3.764152222e-09
3.754729687e-09
3.740408129e-09
3.72131569e-09
3.510555086e-09
3.506744674e-09
3.498320522e-09
3.485518417e-09
3.468451172e-09
3.279293362e-09
3.275885293e-09
3.268346404e-09
3.256887125e-09
3.241605165e-09
3.070448796e-09
3.067386132e-09
3.06061398e-09
3.050320878e-09
3.036591577e-09
2.881433693e-09
2.878672357e-09
2.872569113e-09
2.863293224e-09
2.850918153e-09
2.709575969e-09
2.707077583e-09
2.70155772e-09
2.693169634e-09
2.681977672e-09
2.55230017e-09
2.550034762e-09
2.545031163e-09
2.537427968e-09
2.527281586e-09
2.407499083e-09
2.405440683e-09
2.400895371e-09
2.393988641e-09
2.384770068e-09
2.273655249e-09
2.2717808e-09
2.267642411e-09
2.261353959e-09
2.252959166e-09
2.149778116e-09
2.14806559e-09
2.144285449e-09
2.138541361e-09
2.130871944e-09
2.035038539e-09
2.033466978e-09
2.029998964e-09
2.024729623e-09
2.017693533e-09
1.928485718e-09
1.927036508e-09
1.923839629e-09
1.918983059e-09
1.912498204e-09
1.828923156e-09
1.827582335e-09
1.824625399e-09
1.820133892e-09
1.814136447e-09
1.735039024e-09
1.73379671e-09
1.73105748e-09
1.726896765e-09
1.721340357e-09
1.645517694e-09
1.644370176e-09
1.641839931e-09
1.637996812e-09
1.632865081e-09
1.559888567e-09
1.558833942e-09
1.556508128e-09
1.552975006e-09
1.548256768e-09
1.478155856e-09
1.477190495e-09
1.475060576e-09
1.47182365e-09
1.467500638e-09
1.401227834e-09
1.400347353e-09
1.398404837e-09
1.39545307e-09
1.391510208e-09
1.330078041e-09
1.32927121e-09
1.327491576e-09
1.324787708e-09
1.321176221e-09
1.266130462e-09
1.265387043e-09
1.263748233e-09
1.261259087e-09
1.257934656e-09
1.213898632e-09
1.213203173e-09
1.211670953e-09
1.209344425e-09
1.206237303e-09
1.884008991e-06
2.552051561e-06
2.982279974e-06
3.048525333e-06
2.979156123e-06
3.016145655e-06
3.175268626e-06
3.322248487e-06
3.372450679e-06
3.35586201e-06
3.318123933e-06
3.29403463e-06
3.28781825e-06
3.295204273e-06
3.315072191e-06
3.35814691e-06
3.486027195e-06
3.904028426e-06
5.067261107e-06
6.465261695e-06
7.177793128e-06
7.041535623e-06
6.367965374e-06
5.459116995e-06
4.525250273e-06
3.666256778e-06
2.970823023e-06
2.39671862e-06
1.92172437e-06
1.525112318e-06
1.191906321e-06
9.121887137e-07
6.796120292e-07
4.901265474e-07
3.406404118e-07
2.276168193e-07
1.46280881e-07
9.0765922e-08
5.486717319e-08
3.285929789e-08
2.003560285e-08
1.289134744e-08
9.038349448e-09
6.976693976e-09
5.835445696e-09
5.144789924e-09
4.669051737e-09
4.298650303e-09
3.98433347e-09
3.705937743e-09
3.454679329e-09
3.229259073e-09
3.025484713e-09
2.840893081e-09
2.672899754e-09
2.519043028e-09
2.377277926e-09
2.246131096e-09
2.124628747e-09
2.011961067e-09
1.907210877e-09
1.809243269e-09
1.716804181e-09
1.628676646e-09
1.544407009e-09
1.463974432e-09
1.388293837e-09
1.318228957e-09
1.255218665e-09
1.203695395e-09
4.280073983e-06
3.451114517e-07
1.096062847e-08
5.281061131e-10
8.759286171e-11
5.801084803e-06
1.505097131e-05
8.660998317e-07
2.617883253e-08
8.934216839e-09
6.167657474e-06
1.320356946e-05
1.23281277e-06
6.787714782e-08
6.673782009e-08
5.561725316e-06
8.788600432e-06
1.348803744e-06
1.100220429e-07
4.32145137e-08
4.936599008e-06
7.236126122e-06
6.582512336e-06
6.534321284e-07
5.148501966e-08
4.801375749e-06
7.804040127e-06
1.193882926e-05
1.483757487e-06
1.434155021e-07
4.946302294e-06
8.385731677e-06
1.32468205e-05
1.939045776e-06
2.221484666e-07
4.984130859e-06
7.887118619e-06
1.077474796e-05
1.81482543e-06
2.436770074e-07
4.812024806e-06
6.884716965e-06
8.154123585e-06
2.570705063e-06
3.813734058e-07
4.569587626e-06
6.129363277e-06
7.087930317e-06
4.508135163e-06
7.294807378e-07
4.3583578e-06
5.674116162e-06
6.892487056e-06
6.429837463e-06
1.145653229e-06
4.215157095e-06
5.459417985e-06
6.818436784e-06
7.616950099e-06
1.476145354e-06
4.118415456e-06
5.277116492e-06
6.556845661e-06
7.645286625e-06
1.740750208e-06
4.046731523e-06
5.096146911e-06
6.230683913e-06
7.255847772e-06
2.325871393e-06
3.993272944e-06
4.929626268e-06
5.927555658e-06
6.919879234e-06
3.126093884e-06
3.970881816e-06
4.815073334e-06
5.695215887e-06
6.726778255e-06
4.001488144e-06
4.065255613e-06
4.911681657e-06
5.878805546e-06
6.916996329e-06
4.476100298e-06
4.536459961e-06
5.561363872e-06
6.785643478e-06
7.936071404e-06
3.902909313e-06
6.042785097e-06
8.06504216e-06
1.111931637e-05
1.465592613e-05
4.146957198e-06
7.635436646e-06
9.946182663e-06
1.331634039e-05
1.873313251e-05
2.652343413e-05
8.089377702e-06
9.57112235e-06
1.104436392e-05
1.240534761e-05
1.320684647e-05
7.538502259e-06
8.170735914e-06
8.534385823e-06
8.510359556e-06
8.009029809e-06
6.551322391e-06
6.66644634e-06
6.549674149e-06
6.179240291e-06
5.573878741e-06
5.472987787e-06
5.359583774e-06
5.093558414e-06
4.687180841e-06
4.173197662e-06
4.47330597e-06
4.293306054e-06
4.015885908e-06
3.660330877e-06
3.25262448e-06
3.597695463e-06
3.420445307e-06
3.180265556e-06
2.894630564e-06
2.582357055e-06
2.907381234e-06
2.756532667e-06
2.562039492e-06
2.337936929e-06
2.097765823e-06
2.343889982e-06
2.2226384e-06
2.069630825e-06
1.895656548e-06
1.710554577e-06
1.880178187e-06
1.785776295e-06
1.667410341e-06
1.533282457e-06
1.390657103e-06
1.493796571e-06
1.422136843e-06
1.331986885e-06
1.229557671e-06
1.120280186e-06
1.169224509e-06
1.116200081e-06
1.048755913e-06
9.715898287e-07
8.887843404e-07
8.964389853e-07
8.582743819e-07
8.088793519e-07
7.517885638e-07
6.900644725e-07
6.691963997e-07
6.425903422e-07
6.073384521e-07
5.660751126e-07
5.210812994e-07
4.836368156e-07
4.657821143e-07
4.414136352e-07
4.124642897e-07
3.806045346e-07
3.368861114e-07
3.254308008e-07
3.092180553e-07
2.89629964e-07
2.67858258e-07
2.256386441e-07
2.186498317e-07
2.083182909e-07
1.95598127e-07
1.813096873e-07
1.453591574e-07
1.413158956e-07
1.350243367e-07
1.271162715e-07
1.181333116e-07
9.040764026e-08
8.818758107e-08
8.452362857e-08
7.981507141e-08
7.440349978e-08
5.476813744e-08
5.360249609e-08
5.155165125e-08
4.885651788e-08
4.572249886e-08
3.285382641e-08
3.225670426e-08
3.114058288e-08
2.964386738e-08
2.788427793e-08
2.004699529e-08
1.9735301e-08
1.913086575e-08
1.830953952e-08
1.733567096e-08
1.289239847e-08
1.271452017e-08
1.237563243e-08
1.191555288e-08
1.136816212e-08
9.02490244e-09
8.906379678e-09
8.69953342e-09
8.42459534e-09
8.098881032e-09
6.952877625e-09
6.860866655e-09
6.718610715e-09
6.536293786e-09
6.322733194e-09
5.806522698e-09
5.727911506e-09
5.618261185e-09
5.48287431e-09
5.326442648e-09
5.114681153e-09
5.044791856e-09
4.953454146e-09
4.843672305e-09
4.718207445e-09
4.640079802e-09
4.577397175e-09
4.498240979e-09
4.404379159e-09
4.297622651e-09
4.271811602e-09
4.215434061e-09
4.14530241e-09
4.062791745e-09
3.969217603e-09
3.959939612e-09
3.909337894e-09
3.846818066e-09
3.773505044e-09
3.690440464e-09
3.68396606e-09
3.638648747e-09
3.582808211e-09
3.51736913e-09
3.44321971e-09
3.434924142e-09
3.394316805e-09
3.344355743e-09
3.285813649e-09
3.219441342e-09
3.211488311e-09
3.175032268e-09
3.130216184e-09
3.077699943e-09
3.018128674e-09
3.00944094e-09
2.976611666e-09
2.936299236e-09
2.889066175e-09
2.835461936e-09
2.82636004e-09
2.796699039e-09
2.76031804e-09
2.717696759e-09
2.669307204e-09
2.659697622e-09
2.632816797e-09
2.599883793e-09
2.561307139e-09
2.517491642e-09
2.507029453e-09
2.482614861e-09
2.452724338e-09
2.417709932e-09
2.377920259e-09
2.36633007e-09
2.344110474e-09
2.316920038e-09
2.285062852e-09
2.24884055e-09
2.236135946e-09
2.215870155e-09
2.191077847e-09
2.162022876e-09
2.128966869e-09
2.115472757e-09
2.096930395e-09
2.074256795e-09
2.047682506e-09
2.017436012e-09
2.003535443e-09
1.986499174e-09
1.965681384e-09
1.941284026e-09
1.913509252e-09
1.899422376e-09
1.883704885e-09
1.864517842e-09
1.842038352e-09
1.81644529e-09
1.802021596e-09
1.78747203e-09
1.76972566e-09
1.748938432e-09
1.72526646e-09
1.710100432e-09
1.696606587e-09
1.68016599e-09
1.660924141e-09
1.639025203e-09
1.622489209e-09
1.610033986e-09
1.594851596e-09
1.577074497e-09
1.556835738e-09
1.538726945e-09
1.527277206e-09
1.513307012e-09
1.496937043e-09
1.478287042e-09
1.458778553e-09
1.448294128e-09
1.435489469e-09
1.420474579e-09
1.403366691e-09
1.38355525e-09
1.373980862e-09
1.362279181e-09
1.34855357e-09
1.332906311e-09
1.313880672e-09
1.305108235e-09
1.294396615e-09
1.28183668e-09
1.267520459e-09
1.251197246e-09
1.243112927e-09
1.23326046e-09
1.221718762e-09
1.208566405e-09
1.199916596e-09
1.192347583e-09
1.183143785e-09
1.172372472e-09
1.16010237e-09
5.335692959e-12
0
0
0
0
0
0
0
0
0
0
0
0
0
0
0
0
0
0
0
0
0
0
0
0
0
0
0
0
0
0
0
0
0
0
0
0
0
0
0
0
0
0
0
0
0
0
0
0
0
0
0
0
0
0
0
0
0
0
0
5.102444919e-10
6.46903973e-12
0
0
0
0
0
0
0
0
0
0
0
0
0
0
0
0
0
0
0
0
0
0
0
0
0
0
0
0
0
0
0
0
0
0
0
0
0
0
0
0
0
0
0
0
0
0
0
0
0
0
0
0
0
0
0
0
0
0
5.191320766e-09
0
1.14605324e-10
1.056541795e-11
0
0
0
0
0
0
0
0
0
0
0
0
0
0
0
0
0
0
0
0
0
0
0
0
0
0
0
0
0
0
0
0
0
0
0
0
0
0
0
0
0
0
0
0
0
0
0
0
0
0
0
0
0
0
0
0
1.407243724e-08
3.485283148e-09
1.660604008e-09
2.306444237e-10
3.304571369e-11
2.154599882e-12
0
0
0
0
0
0
0
0
0
0
0
0
0
0
0
0
0
0
0
0
0
0
0
0
0
0
0
0
0
0
0
0
0
0
0
0
0
0
0
0
0
0
0
0
0
0
0
0
0
0
0
0
0
0
5.561316163e-08
1.425969694e-08
9.793304915e-09
2.309433603e-09
3.479834362e-10
7.233701407e-11
1.612123275e-11
1.074487538e-12
0
0
0
0
0
0
0
0
0
0
0
0
0
0
0
0
0
0
0
0
0
0
0
0
0
0
0
0
0
0
0
0
0
0
0
0
0
0
0
0
0
0
0
0
0
0
0
0
0
0
0
0
1.09023254e-07
3.627925346e-08
2.228759992e-08
1.26839866e-08
2.036504054e-09
3.596412292e-10
9.040963751e-11
2.35401464e-11
3.487066578e-12
0
0
0
0
0
0
0
0
0
0
0
0
0
0
0
0
0
0
0
0
0
0
0
0
0
0
0
0
0
0
0
0
0
0
0
0
0
0
0
0
0
0
0
0
0
0
0
0
0
0
0
4.007980974e-08
5.802609317e-08
3.646798753e-08
3.416123349e-08
1.101328175e-08
1.596502139e-09
3.250124235e-10
8.939208415e-11
2.378176575e-11
3.355657805e-12
0
0
0
0
0
0
0
0
0
0
0
0
0
0
0
0
0
0
0
0
0
0
0
0
0
0
0
0
0
0
0
0
0
0
0
0
0
0
0
0
0
0
0
0
0
0
0
0
0
0
2.541653208e-08
7.459251076e-08
5.683923105e-08
5.678017317e-08
3.852778621e-08
7.444263596e-09
1.138032639e-09
2.684359576e-10
7.643598444e-11
1.89719001e-11
1.768261352e-12
0
0
0
0
0
0
0
0
0
0
0
0
0
0
0
0
0
0
0
0
0
0
0
0
0
0
0
0
0
0
0
0
0
0
0
0
0
0
0
0
0
0
0
0
0
0
0
0
0
3.934959651e-08
5.277859206e-08
8.602628934e-08
8.055040955e-08
7.986378022e-08
3.036698053e-08
4.185211144e-09
7.442343498e-10
1.91709318e-10
5.257629222e-11
1.077341403e-11
6.609313854e-14
0
0
0
0
0
0
0
0
0
0
0
0
0
0
0
0
0
0
0
0
0
0
0
0
0
0
0
0
0
0
0
0
0
0
0
0
0
0
0
0
0
0
0
0
0
0
0
0
7.915911297e-08
2.769380294e-08
1.112172567e-07
1.10800745e-07
1.196493823e-07
8.09620434e-08
1.571252148e-08
2.040592252e-09
4.292029533e-10
1.124246496e-10
2.696664908e-11
3.299916904e-12
0
0
0
0
0
0
0
0
0
0
0
0
0
0
0
0
0
0
0
0
0
0
0
0
0
0
0
0
0
0
0
0
0
0
0
0
0
0
0
0
0
0
0
0
0
0
0
0
1.395002416e-07
2.065680639e-08
8.349651227e-08
1.624502441e-07
1.674656655e-07
1.474145701e-07
4.620645118e-08
6.146632935e-09
1.002263175e-09
2.265974325e-10
5.393400327e-11
9.421947151e-12
1.209476338e-14
0
0
0
0
0
0
0
0
0
0
0
0
0
0
0
0
0
0
0
0
0
0
0
0
0
0
0
0
0
0
0
0
0
0
0
0
0
0
0
0
0
0
0
0
0
0
0
2.004231636e-07
2.633254447e-08
5.54296391e-08
2.96470189e-07
2.634225244e-07
2.36491392e-07
1.073482136e-07
1.560605734e-08
2.199599568e-09
4.117128186e-10
8.92233648e-11
1.653958439e-11
8.160207346e-13
0
0
0
0
0
0
0
0
0
0
0
0
0
0
0
0
0
0
0
0
0
0
0
0
0
0
0
0
0
0
0
0
0
0
0
0
0
0
0
0
0
0
0
0
0
0
0
2.612256764e-07
3.567174789e-08
4.638674515e-08
3.870581535e-07
3.951216322e-07
3.676517431e-07
2.034014812e-07
3.641012313e-08
4.550022733e-09
6.986171327e-10
1.279705802e-10
2.22614038e-11
1.583004434e-12
0
0
0
0
0
0
0
0
0
0
0
0
0
0
0
0
0
0
0
0
0
0
0
0
0
0
0
0
0
0
0
0
0
0
0
0
0
0
0
0
0
0
0
0
0
0
0
3.786622781e-07
5.426740121e-08
4.146012875e-08
3.14874921e-07
5.597536547e-07
5.28634756e-07
3.287263476e-07
8.331546121e-08
9.269114912e-09
1.219166847e-09
1.821581909e-10
2.800052903e-11
2.180297846e-12
0
0
0
0
0
0
0
0
0
0
0
0
0
0
0
0
0
0
0
0
0
0
0
0
0
0
0
0
0
0
0
0
0
0
0
0
0
0
0
0
0
0
0
0
0
0
0
5.56407001e-07
8.618485101e-08
4.153766491e-08
2.458499521e-07
8.885657222e-07
7.457841086e-07
4.661435766e-07
1.556258024e-07
1.912944114e-08
2.203722248e-09
2.586358854e-10
3.343624982e-11
2.4806014e-12
0
0
0
0
0
0
0
0
0
0
0
0
0
0
0
0
0
0
0
0
0
0
0
0
0
0
0
0
0
0
0
0
0
0
0
0
0
0
0
0
0
0
0
0
0
0
0
7.766740998e-07
1.33833126e-07
6.578509669e-08
3.326868817e-07
1.37617284e-06
1.03196957e-06
5.900703068e-07
2.280396893e-07
3.671149811e-08
4.127718155e-09
3.813686477e-10
4.025246312e-11
2.671293788e-12
0
0
0
0
0
0
0
0
0
0
0
0
0
0
0
0
0
0
0
0
0
0
0
0
0
0
0
0
0
0
0
0
0
0
0
0
0
0
0
0
0
0
0
0
0
0
0
9.294773688e-07
2.314382765e-07
4.982376234e-07
3.500912852e-06
2.369469269e-06
1.31139568e-06
6.579273272e-07
2.641922424e-07
6.180762854e-08
7.948925788e-09
6.63308864e-10
6.17045382e-11
4.692321725e-12
0
0
0
0
0
0
0
0
0
0
0
0
0
0
0
0
0
0
0
0
0
0
0
0
0
0
0
0
0
0
0
0
0
0
0
0
0
0
0
0
0
0
0
0
0
0
0
8.267736464e-07
2.442870442e-07
6.515969406e-07
4.460949869e-06
2.575354041e-06
1.376063205e-06
6.524189158e-07
2.68539099e-07
8.656727707e-08
1.760278739e-08
1.920850756e-09
1.751433281e-10
1.590405602e-11
0
0
0
0
0
0
0
0
0
0
0
0
0
0
0
0
0
0
0
0
0
0
0
0
0
0
0
0
0
0
0
0
0
0
0
0
0
0
0
0
0
0
0
0
0
0
0
1.340555305e-06
2.158204164e-06
1.230987846e-05
5.631699594e-06
2.695208546e-06
1.300167227e-06
6.101671501e-07
2.720008129e-07
1.10072103e-07
3.546482045e-08
7.143380356e-09
8.021185366e-10
7.089509327e-11
3.696319533e-12
0
0
0
0
0
0
0
0
0
0
0
0
0
0
0
0
0
0
0
0
0
0
0
0
0
0
0
0
0
0
0
0
0
0
0
0
0
0
0
0
0
0
0
0
0
0
3.071572743e-05
1.789296172e-05
8.714597167e-06
4.318112946e-06
2.199292552e-06
1.122081415e-06
5.675001266e-07
2.795659295e-07
1.308740184e-07
5.523853932e-08
1.829175554e-08
3.677859993e-09
4.015709778e-10
3.081863791e-11
5.566664968e-14
0
0
0
0
0
0
0
0
0
0
0
0
0
0
0
0
0
0
0
0
0
0
0
0
0
0
0
0
0
0
0
0
0
0
0
0
0
0
0
0
0
0
0
0
0
1.234524634e-05
8.569068548e-06
5.228613267e-06
3.048401172e-06
1.733113344e-06
9.718823997e-07
5.3800313e-07
2.91592045e-07
1.521201145e-07
7.422142021e-08
3.202497069e-08
1.066796335e-08
2.104247876e-09
2.145157052e-10
1.268065782e-11
0
0
0
0
0
0
0
0
0
0
0
0
0
0
0
0
0
0
0
0
0
0
0
0
0
0
0
0
0
0
0
0
0
0
0
0
0
0
0
0
0
0
0
0
0
6.89699407e-06
5.150590035e-06
3.519328433e-06
2.275802141e-06
1.423280569e-06
8.71329458e-07
5.235948707e-07
3.073388887e-07
1.741950042e-07
9.354453405e-08
4.617555875e-08
1.980291964e-08
6.465655637e-09
1.20994066e-09
1.089265199e-10
3.313579824e-12
0
0
0
0
0
0
0
0
0
0
0
0
0
0
0
0
0
0
0
0
0
0
0
0
0
0
0
0
0
0
0
0
0
0
0
0
0
0
0
0
0
0
0
0
4.701839846e-06
3.627864358e-06
2.632300112e-06
1.826529355e-06
1.228556379e-06
8.063432236e-07
5.171925824e-07
3.230323879e-07
1.949073944e-07
1.121447723e-07
6.032983039e-08
2.939190306e-08
1.220757106e-08
3.796383712e-09
6.42726778e-10
4.641734895e-11
0
0
0
0
0
0
0
0
0
0
0
0
0
0
0
0
0
0
0
0
0
0
0
0
0
0
0
0
0
0
0
0
0
0
0
0
0
0
0
0
0
0
0
0
3.529050204e-06
2.796706704e-06
2.115481251e-06
1.54287436e-06
1.093354038e-06
7.556264256e-07
5.090463437e-07
3.333046671e-07
2.108564044e-07
1.276973008e-07
7.302489063e-08
3.860417529e-08
1.820349835e-08
7.131270796e-09
2.045045027e-09
2.95730647e-10
1.377043429e-11
0
0
0
0
0
0
0
0
0
0
0
0
0
0
0
0
0
0
0
0
0
0
0
0
0
0
0
0
0
0
0
0
0
0
0
0
0
0
0
0
0
0
0
2.769111562e-06
2.233305629e-06
1.739516115e-06
1.323697575e-06
9.76596081e-07
7.012860684e-07
4.906084995e-07
3.3325535e-07
2.187960616e-07
1.378811648e-07
8.25555569e-08
4.626437912e-08
2.369097532e-08
1.06284827e-08
3.829783536e-09
1.004735667e-09
1.277692162e-10
2.810802093e-12
0
0
0
0
0
0
0
0
0
0
0
0
0
0
0
0
0
0
0
0
0
0
0
0
0
0
0
0
0
0
0
0
0
0
0
0
0
0
0
0
0
0
2.223112785e-06
1.834459864e-06
1.473100151e-06
1.151729348e-06
8.766227133e-07
6.488077459e-07
4.665280999e-07
3.257185962e-07
2.200458451e-07
1.430220302e-07
8.871557395e-08
5.190758284e-08
2.816275716e-08
1.37659845e-08
5.707133083e-09
1.798485091e-09
4.026316054e-10
3.692740315e-11
0
0
0
0
0
0
0
0
0
0
0
0
0
0
0
0
0
0
0
0
0
0
0
0
0
0
0
0
0
0
0
0
0
0
0
0
0
0
0
0
0
0
1.824261123e-06
1.528624066e-06
1.249069336e-06
9.958330004e-07
7.745997726e-07
5.872334459e-07
4.327736885e-07
3.092762976e-07
2.136473315e-07
1.422912671e-07
9.072621019e-08
5.485854487e-08
3.103016089e-08
1.607902624e-08
7.326394643e-09
2.644480992e-09
6.069024897e-10
9.456322088e-11
2.585290504e-12
0
0
0
0
0
0
0
0
0
0
0
0
0
0
0
0
0
0
0
0
0
0
0
0
0
0
0
0
0
0
0
0
0
0
0
0
0
0
0
0
0
1.500144263e-06
1.271666586e-06
1.05309527e-06
8.521261259e-07
6.734801579e-07
5.193874884e-07
3.901262065e-07
2.84474928e-07
2.006483333e-07
1.362458596e-07
8.874068841e-08
5.501274221e-08
3.210778526e-08
1.736946326e-08
8.475567256e-09
3.513468469e-09
1.012486133e-09
1.051830305e-10
4.347046767e-12
0
0
0
0
0
0
0
0
0
0
0
0
0
0
0
0
0
0
0
0
0
0
0
0
0
0
0
0
0
0
0
0
0
0
0
0
0
0
0
0
0
1.228181847e-06
1.050612884e-06
8.790660501e-07
7.194036165e-07
5.755258887e-07
4.49603515e-07
3.423726844e-07
2.534740599e-07
1.817306667e-07
1.256274182e-07
8.326466116e-08
5.259297599e-08
3.142484158e-08
1.754389659e-08
8.987667265e-09
4.063302523e-09
1.43492954e-09
2.684182945e-10
4.24001882e-11
1.024612757e-12
0
0
0
0
0
0
0
0
0
0
0
0
0
0
0
0
0
0
0
0
0
0
0
0
0
0
0
0
0
0
0
0
0
0
0
0
0
0
0
0
9.952376444e-07
8.57529997e-07
7.232556191e-07
5.96981286e-07
4.819149202e-07
3.800367627e-07
2.922682628e-07
2.186802925e-07
1.586623396e-07
1.111203864e-07
7.475104668e-08
4.799707461e-08
2.918473844e-08
1.669179652e-08
8.852752813e-09
4.243415967e-09
1.711265362e-09
4.233455105e-10
6.119913583e-13
0
0
0
0
0
0
0
0
0
0
0
0
0
0
0
0
0
0
0
0
0
0
0
0
0
0
0
0
0
0
0
0
0
0
0
0
0
0
0
0
0
7.934738284e-07
6.876091256e-07
5.834586837e-07
4.846155098e-07
3.937186026e-07
3.125099463e-07
2.419399043e-07
1.822865988e-07
1.332819929e-07
9.421499005e-08
6.406805931e-08
4.168672598e-08
2.578382016e-08
1.502770378e-08
8.199075749e-09
4.127935252e-09
1.842213017e-09
6.359810096e-10
4.932694986e-11
0
0
0
0
0
0
0
0
0
0
0
0
0
0
0
0
0
0
0
0
0
0
0
0
0
0
0
0
0
0
0
0
0
0
0
0
0
0
0
0
0
6.185413807e-07
5.383752377e-07
4.588384062e-07
3.827592019e-07
3.122856099e-07
2.489053212e-07
1.934997029e-07
1.464193099e-07
1.075663333e-07
7.648113975e-08
5.242544381e-08
3.447442019e-08
2.163317566e-08
1.287089218e-08
7.206226069e-09
3.765492966e-09
1.78833702e-09
7.000498267e-10
1.015431887e-10
0
0
0
0
0
0
0
0
0
0
0
0
0
0
0
0
0
0
0
0
0
0
0
0
0
0
0
0
0
0
0
0
0
0
0
0
0
0
0
0
0
4.685796687e-07
4.091902724e-07
3.498092213e-07
2.926367139e-07
2.393837499e-07
1.912726987e-07
1.490621012e-07
1.130930527e-07
8.334701686e-08
5.950634862e-08
4.103422173e-08
2.722929169e-08
1.731600159e-08
1.050899946e-08
6.050983845e-09
3.283981222e-09
1.668553086e-09
7.525199617e-10
2.458178819e-10
0
0
0
0
0
0
0
0
0
0
0
0
0
0
0
0
0
0
0
0
0
0
0
0
0
0
0
0
0
0
0
0
0
0
0
0
0
0
0
0
0
3.43165416e-07
3.004254757e-07
2.573909707e-07
2.157331319e-07
1.767719005e-07
1.414677215e-07
1.104311666e-07
8.395139945e-08
6.203891357e-08
4.447115612e-08
3.085259552e-08
2.066562577e-08
1.333237745e-08
8.264083778e-09
4.912637885e-09
2.792225657e-09
1.506777432e-09
7.467999671e-10
2.943881208e-10
6.954879148e-13
0
0
0
0
0
0
0
0
0
0
0
0
0
0
0
0
0
0
0
0
0
0
0
0
0
0
0
0
0
0
0
0
0
0
0
0
0
0
0
0
2.420899962e-07
2.124017078e-07
1.823118992e-07
1.530480824e-07
1.255876647e-07
1.006524593e-07
7.870645467e-08
5.997352746e-08
4.447178948e-08
3.204475199e-08
2.240719114e-08
1.518779491e-08
9.973972081e-09
6.345311526e-09
3.913509023e-09
2.336565692e-09
1.344543583e-09
7.3672266e-10
3.552459548e-10
1.120642123e-10
0
0
0
0
0
0
0
0
0
0
0
0
0
0
0
0
0
0
0
0
0
0
0
0
0
0
0
0
0
0
0
0
0
0
0
0
0
0
0
0
1.642730393e-07
1.4445905e-07
1.242469309e-07
1.045023605e-07
8.591934397e-08
6.90131706e-08
5.411766126e-08
4.139659728e-08
3.086770708e-08
2.242244495e-08
1.586364698e-08
1.093519141e-08
7.353054384e-09
4.833630541e-09
3.115094703e-09
1.970134479e-09
1.221260076e-09
7.281093779e-10
3.968398498e-10
1.667642362e-10
0
0
0
0
0
0
0
0
0
0
0
0
0
0
0
0
0
0
0
0
0
0
0
0
0
0
0
0
0
0
0
0
0
0
0
0
0
0
0
0
1.073392189e-07
9.466358759e-08
8.164774646e-08
6.887328775e-08
5.681213058e-08
4.581515949e-08
3.611073573e-08
2.781200557e-08
2.093396776e-08
1.540423255e-08
1.109333705e-08
7.832817894e-09
5.437745327e-09
3.72579593e-09
2.527180265e-09
1.699253425e-09
1.130307005e-09
7.298251508e-10
4.441008411e-10
2.325561676e-10
7.806559397e-11
0
0
0
0
0
0
0
0
0
0
0
0
0
0
0
0
0
0
0
0
0
0
0
0
0
0
0
0
0
0
0
0
0
0
0
0
0
0
0
6.784887429e-08
6.007483957e-08
5.203676272e-08
4.410742783e-08
3.659178158e-08
2.971762996e-08
2.363391581e-08
1.841523328e-08
1.407389471e-08
1.056434212e-08
7.806415631e-09
5.695161916e-09
4.116599428e-09
2.959340908e-09
2.119486924e-09
1.513027268e-09
1.068458252e-09
7.391804603e-10
4.858291823e-10
2.882068025e-10
1.353816719e-10
1.584870055e-11
0
0
0
0
0
0
0
0
0
0
0
0
0
0
0
0
0
0
0
0
0
0
0
0
0
0
0
0
0
0
0
0
0
0
0
0
0
0
4.18955446e-08
3.731098358e-08
3.253435461e-08
2.779457212e-08
2.327920047e-08
1.912892273e-08
1.543686845e-08
1.225050809e-08
9.57786668e-09
7.394401115e-09
5.653707955e-09
4.29413306e-09
3.249550352e-09
2.455536455e-09
1.852689446e-09
1.392891504e-09
1.034605389e-09
7.541889846e-10
5.247538748e-10
3.386643811e-10
1.870761212e-10
7.287999356e-11
0
0
0
0
0
0
0
0
0
0
0
0
0
0
0
0
0
0
0
0
0
0
0
0
0
0
0
0
0
0
0
0
0
0
0
0
0
0
2.571883696e-08
2.309794262e-08
2.034495459e-08
1.759326545e-08
1.495297117e-08
1.250716642e-08
1.031174961e-08
8.395957641e-09
6.766234468e-09
5.410421687e-09
4.304126964e-09
3.413604186e-09
2.703202133e-09
2.137764326e-09
1.685883755e-09
1.320476856e-09
1.020283416e-09
7.720727232e-10
5.597410536e-10
3.801824623e-10
2.279960651e-10
1.072643526e-10
8.669429305e-12
0
0
0
0
0
0
0
0
0
0
0
0
0
0
0
0
0
0
0
0
0
0
0
0
0
0
0
0
0
0
0
0
0
0
0
0
0
1.6128097e-08
1.465297947e-08
1.308972434e-08
1.151268246e-08
9.983534467e-09
8.549748265e-09
7.243853099e-09
6.083707095e-09
5.074678311e-09
4.211897667e-09
3.484251093e-09
2.874781263e-09
2.365907855e-09
1.939960968e-09
1.581471533e-09
1.276441111e-09
1.01451384e-09
7.867911099e-10
5.920150271e-10
4.194226749e-10
2.722732059e-10
1.490783822e-10
5.760276684e-11
0
0
0
0
0
0
0
0
0
0
0
0
0
0
0
0
0
0
0
0
0
0
0
0
0
0
0
0
0
0
0
0
0
0
0
0
0
1.068570939e-08
9.845918168e-09
8.947524675e-09
8.03046518e-09
7.128159035e-09
6.267064004e-09
5.465647806e-09
4.735546771e-09
4.080865504e-09
3.500831021e-09
2.991760894e-09
2.54610773e-09
2.156394592e-09
1.814657927e-09
1.514189436e-09
1.248268657e-09
1.01243669e-09
8.016975295e-10
6.17913832e-10
4.509585634e-10
3.050517252e-10
1.780717258e-10
7.964324754e-11
0
0
0
0
0
0
0
0
0
0
0
0
0
0
0
0
0
0
0
0
0
0
0
0
0
0
0
0
0
0
0
0
0
0
0
0
0
7.691914583e-09
7.189256076e-09
6.646611413e-09
6.084722423e-09
5.521601366e-09
4.971963946e-09
4.446297234e-09
3.953304119e-09
3.495424924e-09
3.074081286e-09
2.689455262e-09
2.338911736e-09
2.020284937e-09
1.73070874e-09
1.467944675e-09
1.22926049e-09
1.013256634e-09
8.173300786e-10
6.428325564e-10
4.847648813e-10
3.413236604e-10
2.17394324e-10
1.135347112e-10
3.8953202e-11
0
0
0
0
0
0
0
0
0
0
0
0
0
0
0
0
0
0
0
0
0
0
0
0
0
0
0
0
0
0
0
0
0
0
0
0
6.056346356e-09
5.727555113e-09
5.369762858e-09
4.993972455e-09
4.610158669e-09
4.2266013e-09
3.849967883e-09
3.485352716e-09
3.136068123e-09
2.80415803e-09
2.491526053e-09
2.197853892e-09
1.923502279e-09
1.66806258e-09
1.431456596e-09
1.212830004e-09
1.011881412e-09
8.2751171e-10
6.584615406e-10
5.085040507e-10
3.694353849e-10
2.467841644e-10
1.397530356e-10
5.640150568e-11
0
0
0
0
0
0
0
0
0
0
0
0
0
0
0
0
0
0
0
0
0
0
0
0
0
0
0
0
0
0
0
0
0
0
0
0
5.132084432e-09
4.892808482e-09
4.631015968e-09
4.352875257e-09
4.064114008e-09
3.769871316e-09
3.474658354e-09
3.182166206e-09
2.895259611e-09
2.616527095e-09
2.348055825e-09
2.090934581e-09
1.846528594e-09
1.615511532e-09
1.398744897e-09
1.196246079e-09
1.008165049e-09
8.341236324e-10
6.732365752e-10
5.301769385e-10
3.969023465e-10
2.780032289e-10
1.735497784e-10
9.042861351e-11
2.834703278e-11
0
0
0
0
0
0
0
0
0
0
0
0
0
0
0
0
0
0
0
0
0
0
0
0
0
0
0
0
0
0
0
0
0
0
0
4.56269382e-09
4.371819535e-09
4.162367478e-09
3.938110885e-09
3.702659601e-09
3.459503618e-09
3.211924709e-09
2.962871266e-09
2.714914513e-09
2.470790892e-09
2.232339335e-09
2.001279408e-09
1.779329452e-09
1.567590623e-09
1.366984134e-09
1.178725889e-09
1.002644827e-09
8.388626095e-10
6.86876113e-10
5.501225548e-10
4.234573137e-10
3.051226013e-10
2.008283121e-10
1.103650505e-10
4.267389398e-11
0
0
0
0
0
0
0
0
0
0
0
0
0
0
0
0
0
0
0
0
0
0
0
0
0
0
0
0
0
0
0
0
0
0
0
4.16556914e-09
4.003848744e-09
3.826068846e-09
3.634740799e-09
3.432479791e-09
3.221927109e-09
3.005656003e-09
2.78610445e-09
2.565540878e-09
2.346683376e-09
2.131157869e-09
1.920749217e-09
1.71727033e-09
1.521938958e-09
1.335813411e-09
1.160309986e-09
9.954290907e-10
8.415016851e-10
6.985079331e-10
5.665995821e-10
4.443636054e-10
3.296404259e-10
2.274818115e-10
1.384398368e-10
7.443027393e-11
2.153149049e-11
0
0
0
0
0
0
0
0
0
0
0
0
0
0
0
0
0
0
0
0
0
0
0
0
0
0
0
0
0
0
0
0
0
0
3.853607454e-09
3.712085734e-09
3.556254619e-09
3.388014467e-09