/*--------------------------------*- C++ -*----------------------------------*\
  =========                 |
  \\      /  F ield         | OpenFOAM: The Open Source CFD Toolbox
   \\    /   O peration     | Website:  https://openfoam.org
    \\  /    A nd           | Version:  10
     \\/     M anipulation  |
\*---------------------------------------------------------------------------*/
FoamFile
{
    format      ascii;
    class       volScalarField;
    location    "0.02499901733";
    object      CH3OH_0;
}
// * * * * * * * * * * * * * * * * * * * * * * * * * * * * * * * * * * * * * //

dimensions      [0 0 0 0 0 0 0];

internalField   nonuniform List<scalar> 
5170
(
1.308544691e-11
1.30621719e-11
1.290979997e-11
1.183682788e-11
9.202473481e-13
2.629112542e-11
2.621828954e-11
2.589344554e-11
2.424234267e-11
1.49272814e-11
3.94553315e-11
3.933420856e-11
3.885830446e-11
3.688279434e-11
2.913349578e-11
5.251295424e-11
5.234879753e-11
5.175941395e-11
4.965115782e-11
4.346488863e-11
6.544849861e-11
6.524860411e-11
6.458816354e-11
6.250387745e-11
5.78679984e-11
7.82471961e-11
7.802480497e-11
7.73379767e-11
7.542221555e-11
7.233025124e-11
9.090640746e-11
9.067326112e-11
9.000363419e-11
8.839801472e-11
8.684077335e-11
1.034361766e-10
1.032082302e-10
1.025964662e-10
1.014180175e-10
1.013903812e-10
1.158468258e-10
1.156374184e-10
1.15127431e-10
1.144859057e-10
1.159739023e-10
1.281544608e-10
1.279730356e-10
1.27594291e-10
1.27609939e-10
1.305929933e-10
1.403693693e-10
1.402255061e-10
1.40003009e-10
1.407933461e-10
1.452429008e-10
1.524936952e-10
1.523993619e-10
1.523847585e-10
1.540320861e-10
1.599081118e-10
1.645331081e-10
1.645005128e-10
1.647533068e-10
1.67327538e-10
1.745756286e-10
1.764934304e-10
1.765352382e-10
1.77108843e-10
1.806802492e-10
1.892340212e-10
1.883793519e-10
1.885108522e-10
1.894551332e-10
1.940847777e-10
2.038697353e-10
2.001922707e-10
2.00430324e-10
2.018138283e-10
2.075463374e-10
2.184522282e-10
2.119375471e-10
2.123010336e-10
2.141758831e-10
2.210422603e-10
2.32998194e-10
2.236221481e-10
2.241343788e-10
2.265844042e-10
2.34607315e-10
2.475158066e-10
2.352902516e-10
2.360929149e-10
2.400835332e-10
2.556907218e-10
2.918652368e-10
2.58275031e-10
3.114414086e-10
7.600659505e-10
3.850076953e-09
1.738885488e-08
1.570071542e-17
7.789963813e-18
1.499849803e-18
1.288155241e-17
1.799420494e-17
2.03479583e-17
2.421467934e-17
2.289805936e-17
2.543142833e-17
2.171430744e-17
9.648991665e-18
1.511691096e-17
1.279527113e-17
1.093196866e-17
7.421167431e-18
0
4.254396705e-18
3.849037608e-18
1.868744094e-18
0
0
0
0
1.845960798e-17
0
0
0
0
3.619065109e-13
1.375249182e-12
1.867015354e-12
0
0
3.774441274e-11
5.177395854e-10
9.670732386e-10
2.266542469e-11
4.188217994e-13
0
6.645989709e-09
6.645495456e-09
1.347302214e-10
1.151056795e-11
4.007343779e-09
5.888414915e-10
1.229259614e-09
4.934107987e-09
4.425748161e-09
1.435926334e-09
9.896140074e-11
5.270543673e-11
9.386259032e-10
8.910026083e-10
0
1.027480596e-10
1.332443124e-10
0
0
0
2.336741597e-11
3.55896053e-11
1.126615233e-11
0
5.970575985e-11
2.409564955e-10
1.863983303e-10
4.330835445e-11
3.502878188e-11
1.032341123e-10
2.417272442e-10
2.785589977e-10
1.146173021e-10
9.632386811e-11
1.932296605e-10
2.073536974e-10
2.518448133e-10
2.126206273e-10
1.968145985e-10
2.283633521e-10
1.778495004e-10
1.804885982e-10
2.294637394e-10
2.246927482e-10
1.996778305e-10
1.501162249e-10
1.387685525e-10
1.890062966e-10
1.884263001e-10
1.531878103e-10
1.233984198e-10
1.168398265e-09
4.257995372e-10
1.986871288e-10
1.324811803e-10
1.035842948e-10
1.230009454e-07
3.045076792e-08
3.928307001e-09
7.993404577e-10
2.652058422e-11
6.990791454e-10
3.707792484e-09
5.374724971e-08
7.987677982e-07
1.01151021e-05
2.651748814e-09
1.636215331e-08
1.969090269e-07
2.054544924e-06
1.434879932e-05
8.10169506e-09
4.740873331e-08
4.681113775e-07
3.627757419e-06
1.707928012e-05
2.031553657e-08
1.086991595e-07
8.971659106e-07
5.434376272e-06
1.905573459e-05
4.504317609e-08
2.210219694e-07
1.555678653e-06
7.382865731e-06
2.054053624e-05
9.192440221e-08
4.152794562e-07
2.451615509e-06
9.357275722e-06
2.191911558e-05
1.761052071e-07
7.291352896e-07
3.601327409e-06
1.132578933e-05
2.346389173e-05
3.208372554e-07
1.209740156e-06
4.993686772e-06
1.328888076e-05
2.507499393e-05
5.631261311e-07
1.914495709e-06
6.596187852e-06
1.520357102e-05
2.652069565e-05
9.570476339e-07
2.88842708e-06
8.360512832e-06
1.705981626e-05
2.778876729e-05
1.584035813e-06
4.178814316e-06
1.02385692e-05
1.884118097e-05
2.891196106e-05
2.633955943e-06
5.813865867e-06
1.218537319e-05
2.058297769e-05
2.998760719e-05
4.157323341e-06
7.740214311e-06
1.419622391e-05
2.228431953e-05
3.098620501e-05
6.293562286e-06
9.98548161e-06
1.630410646e-05
2.396578628e-05
3.192003771e-05
9.077908901e-06
1.257126509e-05
1.855701358e-05
2.568984776e-05
3.28969426e-05
1.234010261e-05
1.551007505e-05
2.103179e-05
2.752568278e-05
3.401845785e-05
1.624251919e-05
1.899691562e-05
2.393414878e-05
2.977065717e-05
3.556825606e-05
2.074223483e-05
2.311513111e-05
2.754954654e-05
3.286250171e-05
3.827055013e-05
2.61790247e-05
2.836217053e-05
3.256405196e-05
3.783512541e-05
4.350904901e-05
3.363361898e-05
3.575187039e-05
3.994222129e-05
4.543806143e-05
5.170397642e-05
4.374636805e-05
4.556357449e-05
4.920994521e-05
5.408320102e-05
5.973561221e-05
5.296770466e-05
5.409063554e-05
5.640824782e-05
5.955159928e-05
6.316127596e-05
5.622236243e-05
5.671903389e-05
5.772905412e-05
5.904497497e-05
6.044660438e-05
5.31313764e-05
5.32263875e-05
5.337739922e-05
5.348877741e-05
5.345706479e-05
4.63858626e-05
4.630026579e-05
4.607437933e-05
4.567820178e-05
4.5082729e-05
3.88328138e-05
3.86988722e-05
3.838434737e-05
3.788543707e-05
3.720279865e-05
3.254233408e-05
3.242084259e-05
3.213850365e-05
3.170131296e-05
3.111860878e-05
2.770181021e-05
2.760535031e-05
2.738396677e-05
2.704486781e-05
2.659792671e-05
2.429335479e-05
2.422120591e-05
2.405730623e-05
2.380789826e-05
2.348057511e-05
2.214577038e-05
2.209260512e-05
2.197314773e-05
2.179225318e-05
2.155501159e-05
2.105083409e-05
2.101044397e-05
2.092095129e-05
2.078609894e-05
2.06089436e-05
2.078335235e-05
2.075014116e-05
2.067774699e-05
2.0569244e-05
2.042629747e-05
2.109848913e-05
2.106812671e-05
2.100287482e-05
2.090553133e-05
2.077694861e-05
2.173974826e-05
2.170943932e-05
2.164479216e-05
2.154857251e-05
2.142126683e-05
2.246451257e-05
2.24329449e-05
2.236567014e-05
2.226551906e-05
2.213290583e-05
2.307757879e-05
2.304460552e-05
2.297412157e-05
2.286900947e-05
2.272976458e-05
2.345484065e-05
2.342103804e-05
2.334844525e-05
2.32399296e-05
2.309611913e-05
2.354626761e-05
2.351249265e-05
2.343960843e-05
2.33303881e-05
2.318557808e-05
2.33608561e-05
2.332793983e-05
2.325659274e-05
2.314943023e-05
2.300727458e-05
2.294390031e-05
2.291248163e-05
2.284412103e-05
2.274123791e-05
2.26046826e-05
2.235538225e-05
2.232586294e-05
2.226143676e-05
2.21643117e-05
2.203532532e-05
2.165427119e-05
2.16268422e-05
2.156683387e-05
2.147624563e-05
2.135587379e-05
2.088979269e-05
2.086448796e-05
2.080902721e-05
2.072521373e-05
2.061378613e-05
2.009858867e-05
2.007534493e-05
2.002433319e-05
1.994717811e-05
1.984455422e-05
1.930579962e-05
1.928449974e-05
1.923770971e-05
1.916689377e-05
1.907266088e-05
1.852763603e-05
1.850814076e-05
1.846528482e-05
1.840038951e-05
1.831400141e-05
1.777411381e-05
1.775627807e-05
1.771705128e-05
1.765762714e-05
1.757849424e-05
1.705124869e-05
1.703493193e-05
1.699903239e-05
1.694463042e-05
1.687216171e-05
1.636239547e-05
1.634746432e-05
1.631460536e-05
1.626479755e-05
1.619842884e-05
1.570904051e-05
1.56953723e-05
1.566528667e-05
1.56196734e-05
1.555887646e-05
1.509096489e-05
1.507843782e-05
1.505087013e-05
1.500906956e-05
1.49533425e-05
1.450988621e-05
1.449840642e-05
1.447313501e-05
1.443480751e-05
1.438369669e-05
1.396275876e-05
1.395222194e-05
1.392902576e-05
1.389384071e-05
1.384690928e-05
1.34470953e-05
1.343741033e-05
1.341608899e-05
1.338374366e-05
1.334059015e-05
1.296006183e-05
1.295114673e-05
1.293151982e-05
1.290174121e-05
1.286200348e-05
1.24990484e-05
1.249083013e-05
1.24727365e-05
1.244528061e-05
1.240863466e-05
1.206212836e-05
1.205454021e-05
1.20378333e-05
1.201247845e-05
1.197862988e-05
1.164813668e-05
1.164111527e-05
1.162565591e-05
1.160219198e-05
1.157086192e-05
1.125632665e-05
1.124981008e-05
1.123546303e-05
1.1213686e-05
1.118460362e-05
1.088566965e-05
1.087959833e-05
1.086623316e-05
1.084594645e-05
1.081885127e-05
1.05343752e-05
1.052869635e-05
1.051619737e-05
1.049722621e-05
1.04718863e-05
1.019970275e-05
1.019437473e-05
1.01826497e-05
1.01648541e-05
1.014108338e-05
9.878458635e-06
9.873454306e-06
9.862442511e-06
9.845729671e-06
9.823404306e-06
9.567305185e-06
9.562611434e-06
9.552282397e-06
9.536604921e-06
9.515661698e-06
9.264043602e-06
9.259659345e-06
9.250009331e-06
9.235360124e-06
9.215788451e-06
8.96761327e-06
8.963539137e-06
8.954568173e-06
8.940945847e-06
8.922742574e-06
8.679938344e-06
8.676171435e-06
8.667873852e-06
8.655270475e-06
8.638425336e-06
8.403732779e-06
8.400252417e-06
8.392583701e-06
8.380932648e-06
8.365357026e-06
8.146217652e-06
8.1429939e-06
8.135890563e-06
8.125097516e-06
8.110666599e-06
7.930057522e-06
7.927031438e-06
7.920364115e-06
7.910233475e-06
7.896686706e-06
2.45824393e-05
2.864261931e-05
3.017082295e-05
3.046206837e-05
3.052075883e-05
3.103293207e-05
3.207550067e-05
3.317571222e-05
3.394694195e-05
3.453047862e-05
3.501232732e-05
3.555747658e-05
3.607045724e-05
3.648195265e-05
3.700733459e-05
3.772924372e-05
3.894874819e-05
4.151533958e-05
4.719003168e-05
5.607428995e-05
6.373614561e-05
6.564664273e-05
6.132729375e-05
5.333880438e-05
4.459892562e-05
3.667914453e-05
3.068077401e-05
2.626293672e-05
2.323340887e-05
2.137263442e-05
2.046866212e-05
2.030886901e-05
2.066794543e-05
2.131157812e-05
2.201843193e-05
2.261032365e-05
2.297390341e-05
2.306367303e-05
2.288860623e-05
2.249147583e-05
2.19289651e-05
2.125700634e-05
2.052251439e-05
1.976064488e-05
1.899569842e-05
1.824349093e-05
1.751392479e-05
1.681303304e-05
1.614427045e-05
1.550925145e-05
1.49078354e-05
1.434194306e-05
1.380855104e-05
1.33053026e-05
1.282949487e-05
1.237864365e-05
1.195091789e-05
1.154520139e-05
1.116077241e-05
1.079663632e-05
1.045109926e-05
1.012157501e-05
9.805077511e-06
9.498470388e-06
9.19972779e-06
8.907812215e-06
8.624614291e-06
8.352588894e-06
8.098833587e-06
7.885572435e-06
3.469758823e-05
2.611694774e-06
7.794965902e-08
9.122138148e-09
3.046006116e-09
4.328548635e-05
4.592932242e-05
2.650193005e-06
8.232737034e-08
7.579193815e-08
4.647029907e-05
5.543332251e-05
5.068752843e-06
2.814099835e-07
2.893695562e-07
4.588609459e-05
5.117903938e-05
8.775176224e-06
6.932275146e-07
2.157959198e-07
4.417610742e-05
4.926822701e-05
2.140831576e-05
2.157347225e-06
2.265956037e-07
4.375053076e-05
5.073730312e-05
3.400209424e-05
4.25628046e-06
4.343049293e-07
4.428829561e-05
5.308988741e-05
4.276945244e-05
6.216573177e-06
7.210491989e-07
4.465348391e-05
5.322226573e-05
4.535417271e-05
7.886674586e-06
1.046461001e-06
4.441678335e-05
5.19966955e-05
4.5810566e-05
1.392585003e-05
2.041428688e-06
4.398099794e-05
5.095280175e-05
4.656445897e-05
1.930813374e-05
3.157963339e-06
4.349069102e-05
5.022196053e-05
4.738668985e-05
2.378913956e-05
4.281642356e-06
4.330136273e-05
4.959384121e-05
4.763268315e-05
2.772243716e-05
5.451947817e-06
4.316647599e-05
4.860886115e-05
4.737549637e-05
3.127091353e-05
8.665966901e-06
4.280985038e-05
4.796472752e-05
4.726114546e-05
3.40849089e-05
1.253933807e-05
4.271395869e-05
4.766196349e-05
4.730846972e-05
3.620933121e-05
1.572951629e-05
4.290172983e-05
4.765040834e-05
4.761890229e-05
3.800012986e-05
1.844375667e-05
4.366521069e-05
4.813836667e-05
4.829948961e-05
3.902640619e-05
1.954983066e-05
4.598124403e-05
5.032071956e-05
4.983447723e-05
3.868829836e-05
1.727168597e-05
5.227965014e-05
5.864580891e-05
6.034296239e-05
4.768329468e-05
1.445379187e-05
6.229248169e-05
7.241979434e-05
8.327199279e-05
9.398727665e-05
0.0001030578448
6.951852732e-05
7.866356229e-05
8.765272114e-05
9.564741198e-05
0.0001000550226
6.933197027e-05
7.410802385e-05
7.700267389e-05
7.689961285e-05
7.266245207e-05
6.278636144e-05
6.360263911e-05
6.240128923e-05
5.890732038e-05
5.322955612e-05
5.340095293e-05
5.224471569e-05
4.968186263e-05
4.584084475e-05
4.105361817e-05
4.411773472e-05
4.244929293e-05
3.989766023e-05
3.66651305e-05
3.301178833e-05
3.609422954e-05
3.455646352e-05
3.24739143e-05
3.001815186e-05
2.736681445e-05
3.017376491e-05
2.894942822e-05
2.737041895e-05
2.556427173e-05
2.364986334e-05
2.58626087e-05
2.494242038e-05
2.378662116e-05
2.248311163e-05
2.110972544e-05
2.292567769e-05
2.224773121e-05
2.141270555e-05
2.047746794e-05
1.949121361e-05
2.113111634e-05
2.062572956e-05
2.001655462e-05
1.933743422e-05
1.861741172e-05
2.02663893e-05
1.987007066e-05
1.940603427e-05
1.889150172e-05
1.834151408e-05
2.012325589e-05
1.978383648e-05
1.939965587e-05
1.89766884e-05
1.852068388e-05
2.048324346e-05
2.01624119e-05
1.980928479e-05
1.942300033e-05
1.900376697e-05
2.111964728e-05
2.079385564e-05
2.043994616e-05
2.005374714e-05
1.963287165e-05
2.181790494e-05
2.147728785e-05
2.110679837e-05
2.070155822e-05
2.025872952e-05
2.240449473e-05
2.204973285e-05
2.165992177e-05
2.123111943e-05
2.076135565e-05
2.276818756e-05
2.240619894e-05
2.200285726e-05
2.155593246e-05
2.106492153e-05
2.286349554e-05
2.250335959e-05
2.209616296e-05
2.164151258e-05
2.114042427e-05
2.269817566e-05
2.234827704e-05
2.194719183e-05
2.149611098e-05
2.099731362e-05
2.231337994e-05
2.197998408e-05
2.159320702e-05
2.115539407e-05
2.066970313e-05
2.176432277e-05
2.145126165e-05
2.10844369e-05
2.066690492e-05
2.020231255e-05
2.110586405e-05
2.081486721e-05
2.047116602e-05
2.007815345e-05
1.963965762e-05
2.038426816e-05
2.011553692e-05
1.979617264e-05
1.942963245e-05
1.901969404e-05
1.963438552e-05
1.938719084e-05
1.909204072e-05
1.875228076e-05
1.837149932e-05
1.888042047e-05
1.865353059e-05
1.838166185e-05
1.806795151e-05
1.771572569e-05
1.813820337e-05
1.793017291e-05
1.768023186e-05
1.739126207e-05
1.70662955e-05
1.741770325e-05
1.722704671e-05
1.699750797e-05
1.673169419e-05
1.643234038e-05
1.672502734e-05
1.655029055e-05
1.633958382e-05
1.609525269e-05
1.581974502e-05
1.606371235e-05
1.590353169e-05
1.571014508e-05
1.548564761e-05
1.523221708e-05
1.543544471e-05
1.528855148e-05
1.511104732e-05
1.49047887e-05
1.467170768e-05
1.484013509e-05
1.470533505e-05
1.45423436e-05
1.435279662e-05
1.413839794e-05
1.42797964e-05
1.415600531e-05
1.400624552e-05
1.383195818e-05
1.363464494e-05
1.375142061e-05
1.363760539e-05
1.349985884e-05
1.333944625e-05
1.315768703e-05
1.325271104e-05
1.31479274e-05
1.302106467e-05
1.287323336e-05
1.270559329e-05
1.278101813e-05
1.268441677e-05
1.256741404e-05
1.243098622e-05
1.227615387e-05
1.23339017e-05
1.224472036e-05
1.213665692e-05
1.201057211e-05
1.186736556e-05
1.19095589e-05
1.182710009e-05
1.172713993e-05
1.161043802e-05
1.147778841e-05
1.150688267e-05
1.143047981e-05
1.133783244e-05
1.122961043e-05
1.110651421e-05
1.112515444e-05
1.105415715e-05
1.096805879e-05
1.086744917e-05
1.075294714e-05
1.076339441e-05
1.069717761e-05
1.061689191e-05
1.05230573e-05
1.04162217e-05
1.041995337e-05
1.035796894e-05
1.028284435e-05
1.019503971e-05
1.009504314e-05
1.009231304e-05
1.003412509e-05
9.963628768e-06
9.881236149e-06
9.787385609e-06
9.777572693e-06
9.722897334e-06
9.656670431e-06
9.57926918e-06
9.491095966e-06
9.472678051e-06
9.421385689e-06
9.359234879e-06
9.286576979e-06
9.203785728e-06
9.175661116e-06
9.127734387e-06
9.069608115e-06
9.001612482e-06
8.924094713e-06
8.885481898e-06
8.840916515e-06
8.786788958e-06
8.723411067e-06
8.651106957e-06
8.603997711e-06
8.562754437e-06
8.512580188e-06
8.453764558e-06
8.38660463e-06
8.333551401e-06
8.295403556e-06
8.248940037e-06
8.194422802e-06
8.13211892e-06
8.081184259e-06
8.045813649e-06
8.002715276e-06
7.952118934e-06
7.894257973e-06
7.868975094e-06
7.835733921e-06
7.795242211e-06
7.747701812e-06
7.693318364e-06
1.09815465e-08
7.99069388e-08
2.349263986e-08
1.13356189e-08
8.884072368e-09
8.178241254e-09
7.932527293e-09
7.847750262e-09
7.821314699e-09
7.813569789e-09
7.810136142e-09
7.806028016e-09
7.801092622e-09
7.796535685e-09
7.794104271e-09
7.796653582e-09
7.793261016e-09
7.783974403e-09
7.779518677e-09
7.776971892e-09
7.774953696e-09
7.773072922e-09
7.771252158e-09
7.769525862e-09
7.76793528e-09
7.766481182e-09
7.765146582e-09
7.763930568e-09
7.76281124e-09
7.761766897e-09
7.760794932e-09
7.759884303e-09
7.759037114e-09
7.758252532e-09
7.757530682e-09
7.756869738e-09
7.756267213e-09
7.755719553e-09
7.755212352e-09
7.754748316e-09
7.75430666e-09
7.753886383e-09
7.753491262e-09
7.753108778e-09
7.752760585e-09
7.752483029e-09
7.752244547e-09
7.752044203e-09
7.75185806e-09
7.75170451e-09
7.751566079e-09
7.751446291e-09
7.751334348e-09
7.751215408e-09
7.750694881e-09
7.746853151e-09
7.722727866e-09
7.611349171e-09
7.224349705e-09
6.715820114e-09
1.468826516e-07
3.865577659e-07
8.024431007e-08
3.077833429e-08
2.256381599e-08
2.044980066e-08
1.972558143e-08
1.943829871e-08
1.932334652e-08
1.927472891e-08
1.925080718e-08
1.923298999e-08
1.92163321e-08
1.920036456e-08
1.918852923e-08
1.918678889e-08
1.917646593e-08
1.915552016e-08
1.91448422e-08
1.913842454e-08
1.913314453e-08
1.912790751e-08
1.912275171e-08
1.911800223e-08
1.911384837e-08
1.911014619e-08
1.910677955e-08
1.910384937e-08
1.91011745e-08
1.909878469e-08
1.909664076e-08
1.909462606e-08
1.909287151e-08
1.909131143e-08
1.908994485e-08
1.90887513e-08
1.908782305e-08
1.908706634e-08
1.908632905e-08
1.90857272e-08
1.908521372e-08
1.908467871e-08
1.908427512e-08
1.908403825e-08
1.908371062e-08
1.908357766e-08
1.908326037e-08
1.908319423e-08
1.908308039e-08
1.908320578e-08
1.908329501e-08
1.908337399e-08
1.908345215e-08
1.908365099e-08
1.908296243e-08
1.907770276e-08
1.905212268e-08
1.896721525e-08
1.880801276e-08
1.871567377e-08
3.91242955e-07
5.105553687e-07
1.203104591e-07
4.736639773e-08
3.503716834e-08
3.193212988e-08
3.085534376e-08
3.040012304e-08
3.01877251e-08
3.0082624e-08
3.002565089e-08
2.998819173e-08
2.995727768e-08
2.99282383e-08
2.990292581e-08
2.988832984e-08
2.987004562e-08
2.984582188e-08
2.983324031e-08
2.982491828e-08
2.981693575e-08
2.980832599e-08
2.97996019e-08
2.979144228e-08
2.978417452e-08
2.977774739e-08
2.977199346e-08
2.976695383e-08
2.976248349e-08
2.975857687e-08
2.975515154e-08
2.975216462e-08
2.97497186e-08
2.97476536e-08
2.974597888e-08
2.974466921e-08
2.974368506e-08
2.97428834e-08
2.974216518e-08
2.97416476e-08
2.974133494e-08
2.974117085e-08
2.974120957e-08
2.974153604e-08
2.974181604e-08
2.974231577e-08
2.974262366e-08
2.974327656e-08
2.974380981e-08
2.974465044e-08
2.97455458e-08
2.974659382e-08
2.974738249e-08
2.974863111e-08
2.974922326e-08
2.974877276e-08
2.974618301e-08
2.975980802e-08
2.98943824e-08
3.011250285e-08
6.610846788e-07
6.241145232e-07
1.863464926e-07
5.990281175e-08
4.327993186e-08
3.977859592e-08
3.860424021e-08
3.808206752e-08
3.781617672e-08
3.767470838e-08
3.759656977e-08
3.754950225e-08
3.751563162e-08
3.748609496e-08
3.745923893e-08
3.743983338e-08
3.742493685e-08
3.741433828e-08
3.741200311e-08
3.741070707e-08
3.74071227e-08
3.740127583e-08
3.739441133e-08
3.73876489e-08
3.738156959e-08
3.737623774e-08
3.737157329e-08
3.736758296e-08
3.736417435e-08
3.736132762e-08
3.735895836e-08
3.735704167e-08
3.735566812e-08
3.735473182e-08
3.735413974e-08
3.735394001e-08
3.735403755e-08
3.735426197e-08
3.735453003e-08
3.735496311e-08
3.735557974e-08
3.735633074e-08
3.735725136e-08
3.735842619e-08
3.735967232e-08
3.73610755e-08
3.736237608e-08
3.736389115e-08
3.736527893e-08
3.736697627e-08
3.736867766e-08
3.737060694e-08
3.737222611e-08
3.737447039e-08
3.737677492e-08
3.738239188e-08
3.740069026e-08
3.747627228e-08
3.771370695e-08
3.798510207e-08
8.88008483e-07
9.949021709e-07
4.966417777e-07
1.127453524e-07
5.263233016e-08
4.482235974e-08
4.299902126e-08
4.231680448e-08
4.199186615e-08
4.18235127e-08
4.173500566e-08
4.168835426e-08
4.166248212e-08
4.164545406e-08
4.163217705e-08
4.162319434e-08
4.162585107e-08
4.164078069e-08
4.165777506e-08
4.167060861e-08
4.167743429e-08
4.167956157e-08
4.167917611e-08
4.167790991e-08
4.167662822e-08
4.167558068e-08
4.167481202e-08
4.167435374e-08
4.167417727e-08
4.167428144e-08
4.167462117e-08
4.167518943e-08
4.167603663e-08
4.167712425e-08
4.167837948e-08
4.16798402e-08
4.168143885e-08
4.168306606e-08
4.168467338e-08
4.168634794e-08
4.168810142e-08
4.168988318e-08
4.169172806e-08
4.169369584e-08
4.169569693e-08
4.169776237e-08
4.169978696e-08
4.170187597e-08
4.170386389e-08
4.170603726e-08
4.170818576e-08
4.171050778e-08
4.171260841e-08
4.171529539e-08
4.171864442e-08
4.172693035e-08
4.175110185e-08
4.182914149e-08
4.201915466e-08
4.220782601e-08
5.219855185e-07
1.48442211e-06
1.064136731e-06
3.617525977e-07
8.508630256e-08
5.100203887e-08
4.585928824e-08
4.44883869e-08
4.395639879e-08
4.371345286e-08
4.359811534e-08
4.354483797e-08
4.352174976e-08
4.351244783e-08
4.35093145e-08
4.351069607e-08
4.35306954e-08
4.356866454e-08
4.360443688e-08
4.363197002e-08
4.365006194e-08
4.366093999e-08
4.3667592e-08
4.36721763e-08
4.367589674e-08
4.367922907e-08
4.368236408e-08
4.368539883e-08
4.368835542e-08
4.369126719e-08
4.369413316e-08
4.369696738e-08
4.369980087e-08
4.370263552e-08
4.370544285e-08
4.370824726e-08
4.371102433e-08
4.371373736e-08
4.371637221e-08
4.371897745e-08
4.372155965e-08
4.372408325e-08
4.372657335e-08
4.372905045e-08
4.373147215e-08
4.373387807e-08
4.373624426e-08
4.373860182e-08
4.374086743e-08
4.374316737e-08
4.374540641e-08
4.374772758e-08
4.374994095e-08
4.375261088e-08
4.375618557e-08
4.376406611e-08
4.37842216e-08
4.383852351e-08
4.394866424e-08
4.404766265e-08
2.345557618e-07
1.558880084e-06
1.778781185e-06
1.048089871e-06
2.686709638e-07
7.267057572e-08
5.022706837e-08
4.622517332e-08
4.50283175e-08
4.455410354e-08
4.434771738e-08
4.425804644e-08
4.422177188e-08
4.420976151e-08
4.42090445e-08
4.421538244e-08
4.424566752e-08
4.429767938e-08
4.434629516e-08
4.438519843e-08
4.441280665e-08
4.443126639e-08
4.444387345e-08
4.445323132e-08
4.446086867e-08
4.446752765e-08
4.447354041e-08
4.447907866e-08
4.448423828e-08
4.448908778e-08
4.449366442e-08
4.449800648e-08
4.450215259e-08
4.450612319e-08
4.450992382e-08
4.451357831e-08
4.451709028e-08
4.452046005e-08
4.452369363e-08
4.452681663e-08
4.452983806e-08
4.453274625e-08
4.453555928e-08
4.453828529e-08
4.45409107e-08
4.454345754e-08
4.454592465e-08
4.454833429e-08
4.455066148e-08
4.455294077e-08
4.455514498e-08
4.455735789e-08
4.455954029e-08
4.45620795e-08
4.456553588e-08
4.45722126e-08
4.458682601e-08
4.461931759e-08
4.46749102e-08
4.472023377e-08
1.583206355e-07
8.971256248e-07
2.397810339e-06
1.975268843e-06
9.164577903e-07
1.778335253e-07
6.330424248e-08
4.923699554e-08
4.613966999e-08
4.510833689e-08
4.469417595e-08
4.451965998e-08
4.444838775e-08
4.442302802e-08
4.441888366e-08
4.442644667e-08
4.446181683e-08
4.452086835e-08
4.457667921e-08
4.462300392e-08
4.465768225e-08
4.468219941e-08
4.469961823e-08
4.4712716e-08
4.472329414e-08
4.473233112e-08
4.474032201e-08
4.474752923e-08
4.475411955e-08
4.47601995e-08
4.476584296e-08
4.477111344e-08
4.477605884e-08
4.478071805e-08
4.478511669e-08
4.478928323e-08
4.479323736e-08
4.479699432e-08
4.480056998e-08
4.480398291e-08
4.480724574e-08
4.481036245e-08
4.48133468e-08
4.48162087e-08
4.481895173e-08
4.482158535e-08
4.482411141e-08
4.482654345e-08
4.482888305e-08
4.483114402e-08
4.483332984e-08
4.483549395e-08
4.483767998e-08
4.484019639e-08
4.484362103e-08
4.48495562e-08
4.486068599e-08
4.488104096e-08
4.491044897e-08
4.493155914e-08
2.275702744e-07
4.694220085e-07
2.94184252e-06
3.048090742e-06
2.095757609e-06
6.472888879e-07
1.133249845e-07
5.685202184e-08
4.819830835e-08
4.586138172e-08
4.501370612e-08
4.467036419e-08
4.4529272e-08
4.447513928e-08
4.446032653e-08
4.446542276e-08
4.450248038e-08
4.456493919e-08
4.462477506e-08
4.467578868e-08
4.471552704e-08
4.474484707e-08
4.476632681e-08
4.4782631e-08
4.479568782e-08
4.480665577e-08
4.48161843e-08
4.482464686e-08
4.483227827e-08
4.483923401e-08
4.484562547e-08
4.485153672e-08
4.485703255e-08
4.486216527e-08
4.486697462e-08
4.487149663e-08
4.487575913e-08
4.487978618e-08
4.488359852e-08
4.488721529e-08
4.489065255e-08
4.489392192e-08
4.489703705e-08
4.490000913e-08
4.49028472e-08
4.490556043e-08
4.490815455e-08
4.491063874e-08
4.491301928e-08
4.491530777e-08
4.491752045e-08
4.49197084e-08
4.492196421e-08
4.492458508e-08
4.492817281e-08
4.493397581e-08
4.494369174e-08
4.495899334e-08
4.497818082e-08
4.498980406e-08
3.618939229e-07
2.867182862e-07
2.480681368e-06
4.026829457e-06
3.34380515e-06
1.672548382e-06
3.080800971e-07
7.799284196e-08
5.250985775e-08
4.71936673e-08
4.550735782e-08
4.486198088e-08
4.459907509e-08
4.449374332e-08
4.445798977e-08
4.445568951e-08
4.449139551e-08
4.455506381e-08
4.461720909e-08
4.467136452e-08
4.47148635e-08
4.474810971e-08
4.477319263e-08
4.479250661e-08
4.480795071e-08
4.48207768e-08
4.483175554e-08
4.484136782e-08
4.484992769e-08
4.485764875e-08
4.486468183e-08
4.487113728e-08
4.487709912e-08
4.48826328e-08
4.488779045e-08
4.489261538e-08
4.489714271e-08
4.490140247e-08
4.490541981e-08
4.490921694e-08
4.49128129e-08
4.491622361e-08
4.491946392e-08
4.492254666e-08
4.492548276e-08
4.492828252e-08
4.493095426e-08
4.493350753e-08
4.493595116e-08
4.493829791e-08
4.494057104e-08
4.494283054e-08
4.494520603e-08
4.494802171e-08
4.495191164e-08
4.495795459e-08
4.49673957e-08
4.498097876e-08
4.499647729e-08
4.500421705e-08
5.367832164e-07
1.78424893e-07
1.303920997e-06
5.269588372e-06
4.871882073e-06
3.097218063e-06
8.394638205e-07
1.41872889e-07
6.203441305e-08
4.951536835e-08
4.626043775e-08
4.513783322e-08
4.469850582e-08
4.452030019e-08
4.445324886e-08
4.443810735e-08
4.446929856e-08
4.453228591e-08
4.459546817e-08
4.465170691e-08
4.469805355e-08
4.473455942e-08
4.476289549e-08
4.478513143e-08
4.480301987e-08
4.481780583e-08
4.483032469e-08
4.48411447e-08
4.485066247e-08
4.485915771e-08
4.486682907e-08
4.487381991e-08
4.488023656e-08
4.488616041e-08
4.489165551e-08
4.489677373e-08
4.490155753e-08
4.490604258e-08
4.491025883e-08
4.491423208e-08
4.49179845e-08
4.492153501e-08
4.49249003e-08
4.492809507e-08
4.493113186e-08
4.493402246e-08
4.493677679e-08
4.493940547e-08
4.494192e-08
4.494433696e-08
4.494668752e-08
4.494904661e-08
4.495157751e-08
4.495464294e-08
4.495890274e-08
4.496533687e-08
4.497493324e-08
4.498797344e-08
4.500193697e-08
4.500756588e-08
7.516562199e-07
1.636768943e-07
7.918336545e-07
6.430272491e-06
6.941130282e-06
4.881208686e-06
1.811185262e-06
2.829171998e-07
8.159447989e-08
5.348048848e-08
4.742854057e-08
4.556428076e-08
4.486588216e-08
4.458033891e-08
4.446499703e-08
4.442809684e-08
4.444995675e-08
4.450958678e-08
4.457218182e-08
4.462934983e-08
4.467763804e-08
4.47167239e-08
4.47478963e-08
4.477289281e-08
4.47932505e-08
4.481011706e-08
4.482431861e-08
4.483646923e-08
4.484703497e-08
4.485636433e-08
4.4864712e-08
4.487226202e-08
4.487914874e-08
4.488547289e-08
4.489131212e-08
4.489672834e-08
4.490177186e-08
4.490648446e-08
4.491090122e-08
4.491505188e-08
4.491896188e-08
4.492265288e-08
4.492614374e-08
4.492945106e-08
4.493258924e-08
4.493557177e-08
4.493841006e-08
4.494111629e-08
4.494370458e-08
4.494619663e-08
4.49486339e-08
4.495111044e-08
4.49538233e-08
4.495717163e-08
4.496182351e-08
4.496867642e-08
4.497852209e-08
4.499132696e-08
4.500435911e-08
4.500831733e-08
1.286968241e-06
2.218766759e-07
6.17948021e-07
5.620376881e-06
9.16773303e-06
7.03547508e-06
3.187656935e-06
5.749910519e-07
1.208294133e-07
6.038678356e-08
4.918523776e-08
4.617597368e-08
4.511478484e-08
4.46826782e-08
4.45002774e-08
4.443174758e-08
4.443897561e-08
4.449208705e-08
4.455203167e-08
4.460866608e-08
4.465776355e-08
4.469854573e-08
4.473192337e-08
4.475930536e-08
4.478198285e-08
4.480094129e-08
4.481692137e-08
4.483052064e-08
4.484223867e-08
4.485248063e-08
4.486155849e-08
4.486970316e-08
4.487708325e-08
4.48838233e-08
4.489001758e-08
4.489573974e-08
4.490104886e-08
4.490599343e-08
4.491061379e-08
4.491494396e-08
4.491901281e-08
4.492284493e-08
4.492646155e-08
4.49298814e-08
4.493312086e-08
4.493619505e-08
4.493911704e-08
4.494190098e-08
4.494456415e-08
4.494713511e-08
4.494966785e-08
4.495227705e-08
4.495519213e-08
4.495884168e-08
4.49638843e-08
4.497113229e-08
4.498120178e-08
4.499380506e-08
4.50060514e-08
4.500835496e-08
2.035334332e-06
3.244800184e-07
4.679943524e-07
3.764774526e-06
1.220832786e-05
9.54967218e-06
4.784975009e-06
1.200553087e-06
1.965655734e-07
7.2800649e-08
5.176596107e-08
4.696017048e-08
4.542333847e-08
4.48160361e-08
4.455542462e-08
4.444937151e-08
4.443842037e-08
4.448248581e-08
4.453778873e-08
4.459226368e-08
4.464079771e-08
4.468213672e-08
4.471680274e-08
4.474589738e-08
4.477046763e-08
4.479130628e-08
4.480901056e-08
4.482409359e-08
4.483703222e-08
4.48482546e-08
4.485811636e-08
4.486689358e-08
4.487479226e-08
4.488196462e-08
4.488852463e-08
4.489455986e-08
4.490013943e-08
4.490531923e-08
4.491014529e-08
4.491465613e-08
4.491888428e-08
4.492285752e-08
4.492659968e-08
4.493013169e-08
4.493347187e-08
4.493663694e-08
4.493964199e-08
4.494250361e-08
4.494524321e-08
4.494789791e-08
4.495053595e-08
4.495329294e-08
4.495642738e-08
4.496038742e-08
4.496580881e-08
4.497341278e-08
4.498365094e-08
4.499602266e-08
4.500751119e-08
4.500809457e-08
2.816773343e-06
4.707431523e-07
4.373733316e-07
3.047765438e-06
1.688167586e-05
1.235272425e-05
6.299638061e-06
2.08990533e-06
3.612904854e-07
9.978121093e-08
5.663844005e-08
4.82705527e-08
4.591507199e-08
4.503150197e-08
4.465309485e-08
4.449161737e-08
4.445398247e-08
4.448437143e-08
4.453212279e-08
4.458237512e-08
4.462875281e-08
4.466929396e-08
4.470409298e-08
4.473395693e-08
4.475970613e-08
4.478194226e-08
4.480109405e-08
4.481753942e-08
4.483167218e-08
4.484389288e-08
4.485456912e-08
4.486400709e-08
4.48724455e-08
4.488006447e-08
4.488699932e-08
4.489335318e-08
4.489920641e-08
4.490462311e-08
4.490965548e-08
4.49143469e-08
4.491873383e-08
4.492284738e-08
4.492671415e-08
4.493035732e-08
4.493379711e-08
4.493705196e-08
4.494013942e-08
4.494307926e-08
4.494589813e-08