/*--------------------------------*- C++ -*----------------------------------*\
  =========                 |
  \\      /  F ield         | OpenFOAM: The Open Source CFD Toolbox
   \\    /   O peration     | Website:  https://openfoam.org
    \\  /    A nd           | Version:  10
     \\/     M anipulation  |
\*---------------------------------------------------------------------------*/
FoamFile
{
    format      ascii;
    class       volScalarField;
    location    "0.02499901733";
    object      CH3OH;
}
// * * * * * * * * * * * * * * * * * * * * * * * * * * * * * * * * * * * * * //

dimensions      [0 0 0 0 0 0 0];

internalField   nonuniform List<scalar> 
5170
(
1.356552148e-11
1.354295447e-11
1.339167407e-11
1.23169473e-11
9.229126555e-13
2.679734374e-11
2.672672245e-11
2.640415191e-11
2.475997873e-11
1.541853422e-11
3.995071445e-11
3.983220374e-11
3.935915571e-11
3.73884642e-11
2.965556327e-11
5.300424638e-11
5.2842861e-11
5.225660197e-11
5.015195269e-11
4.397738221e-11
6.593998383e-11
6.574294819e-11
6.508551921e-11
6.300454974e-11
5.837757679e-11
7.874177357e-11
7.852272777e-11
7.783907137e-11
7.592492165e-11
7.284135693e-11
9.140506849e-11
9.117546112e-11
9.05094409e-11
8.890474282e-11
8.735591422e-11
1.039395927e-10
1.037149259e-10
1.031063751e-10
1.01930353e-10
1.019108942e-10
1.163542089e-10
1.161484218e-10
1.156415741e-10
1.150027258e-10
1.164994633e-10
1.286647428e-10
1.284873114e-10
1.281132421e-10
1.281299019e-10
1.311223315e-10
1.408823452e-10
1.407421473e-10
1.40524102e-10
1.413163571e-10
1.457756762e-10
1.53009379e-10
1.529183026e-10
1.529056629e-10
1.545576607e-10
1.604440895e-10
1.650504379e-10
1.650212864e-10
1.652755529e-10
1.678547457e-10
1.751141609e-10
1.770123386e-10
1.770578882e-10
1.77633979e-10
1.812090807e-10
1.897751571e-10
1.889003459e-10
1.890355573e-10
1.899832708e-10
1.946158974e-10
2.044139661e-10
2.007161817e-10
2.009576618e-10
2.023446872e-10
2.080804796e-10
2.189996335e-10
2.124647065e-10
2.128312146e-10
2.147091186e-10
2.215800093e-10
2.335489138e-10
2.241524687e-10
2.246676338e-10
2.271198279e-10
2.351480501e-10
2.480698693e-10
2.358234275e-10
2.366290984e-10
2.40621339e-10
2.562339559e-10
2.924230098e-10
2.58810561e-10
3.120043053e-10
7.607689482e-10
3.849683588e-09
1.738872249e-08
6.807235843e-18
0
0
4.33473459e-18
8.082533074e-18
6.643499311e-18
1.122119678e-17
9.803808201e-18
1.179108838e-17
8.018661316e-18
6.010504183e-18
9.462179785e-18
7.325182094e-18
5.773447849e-18
4.013583693e-18
0
3.644780915e-18
3.194973112e-18
1.011870727e-18
0
0
0
0
0
0
0
0
5.170319239e-15
2.860220617e-13
0
0
0
0
3.537009667e-11
3.64213636e-10
1.049611524e-09
2.663249624e-11
0
0
6.541239515e-09
6.503062271e-09
4.43715164e-11
0
3.818761275e-09
5.443819506e-10
1.219142808e-09
4.713032401e-09
4.219445037e-09
1.550063949e-09
1.064665514e-10
1.084262384e-10
1.141844913e-09
1.075248939e-09
0
9.966380192e-11
1.273837029e-10
0
0
1.450514796e-11
2.361879394e-11
3.672978081e-11
7.114014069e-12
1.774948619e-11
5.681694254e-11
2.303571737e-10
1.771224286e-10
3.952574985e-11
3.260525009e-11
9.974721561e-11
2.377708332e-10
2.708240647e-10
1.092999847e-10
9.170332197e-11
1.850381089e-10
2.060879781e-10
2.501024862e-10
2.04273551e-10
1.884415504e-10
2.229709267e-10
1.773514382e-10
1.81803699e-10
2.255492672e-10
2.201658532e-10
1.987871836e-10
1.496117017e-10
1.397086055e-10
1.892433529e-10
1.882938462e-10
1.539579231e-10
1.226250143e-10
1.167971126e-09
4.269410715e-10
1.996300902e-10
1.327146851e-10
1.025508898e-10
1.229661663e-07
3.012514115e-08
3.922269573e-09
7.930240587e-10
2.600601289e-11
6.997985462e-10
3.711182184e-09
5.371770374e-08
7.960365665e-07
1.011482465e-05
2.652373183e-09
1.637053537e-08
1.97022927e-07
2.053735154e-06
1.434745991e-05
8.102071477e-09
4.741054614e-08
4.678973944e-07
3.628521627e-06
1.707870722e-05
2.031846061e-08
1.087642521e-07
8.97763046e-07
5.436769163e-06
1.905785293e-05
4.501806049e-08
2.208797623e-07
1.556100334e-06
7.383717668e-06
2.05454597e-05
9.187925375e-08
4.148505611e-07
2.449676461e-06
9.356398824e-06
2.192097519e-05
1.761485089e-07
7.291224051e-07
3.60070033e-06
1.132458043e-05
2.346076941e-05
3.210616779e-07
1.210572185e-06
4.995299565e-06
1.328980977e-05
2.507483447e-05
5.635714337e-07
1.915900121e-06
6.599084796e-06
1.520565261e-05
2.652097081e-05
9.577100763e-07
2.890123062e-06
8.363570337e-06
1.706261732e-05
2.779030806e-05
1.584408742e-06
4.179655677e-06
1.024071429e-05
1.884411195e-05
2.891472043e-05
2.633578134e-06
5.814274563e-06
1.218689046e-05
2.058556928e-05
2.999040162e-05
4.160074509e-06
7.741969995e-06
1.419808705e-05
2.228679533e-05
3.098883321e-05
6.291514401e-06
9.984430844e-06
1.630415293e-05
2.396673188e-05
3.192154999e-05
9.076495928e-06
1.256979808e-05
1.855499861e-05
2.568662102e-05
3.289190781e-05
1.233442349e-05
1.550315425e-05
2.102328075e-05
2.751485281e-05
3.400603961e-05
1.622700177e-05
1.898122205e-05
2.391624885e-05
2.974759254e-05
3.553769955e-05
2.071850294e-05
2.308533394e-05
2.750464016e-05
3.279158122e-05
3.816786499e-05
2.611101776e-05
2.827702599e-05
3.244385896e-05
3.766391622e-05
4.327554632e-05
3.347336433e-05
3.557304099e-05
3.972576872e-05
4.517326283e-05
5.139146663e-05
4.350499084e-05
4.533129507e-05
4.899203593e-05
5.387959503e-05
5.955587449e-05
5.288626461e-05
5.40269836e-05
5.638230206e-05
5.958210659e-05
6.326660269e-05
5.639154676e-05
5.690622154e-05
5.79524009e-05
5.932174588e-05
6.079048832e-05
5.346681676e-05
5.357185813e-05
5.374409435e-05
5.388547021e-05
5.388906272e-05
4.675220874e-05
4.666990773e-05
4.645054459e-05
4.606303429e-05
4.54773082e-05
3.91416947e-05
3.900808676e-05
3.869397851e-05
3.81944187e-05
3.751000436e-05
3.277463485e-05
3.265246186e-05
3.236828671e-05
3.192785546e-05
3.134061527e-05
2.786203728e-05
2.776476223e-05
2.754137167e-05
2.719906144e-05
2.674771584e-05
2.439411344e-05
2.432129425e-05
2.415576546e-05
2.390382448e-05
2.357313211e-05
2.219949657e-05
2.214587125e-05
2.202529988e-05
2.184266634e-05
2.160314392e-05
2.106824774e-05
2.102758878e-05
2.093743592e-05
2.080155718e-05
2.062306153e-05
2.077387478e-05
2.074055184e-05
2.06678676e-05
2.055890453e-05
2.041536256e-05
2.107093254e-05
2.10405743e-05
2.097530103e-05
2.087790951e-05
2.074927145e-05
2.170238429e-05
2.16721511e-05
2.160765167e-05
2.151164538e-05
2.138462622e-05
2.242453711e-05
2.239307722e-05
2.232603104e-05
2.222622067e-05
2.20940602e-05
2.304040202e-05
2.300753975e-05
2.293729786e-05
2.283255085e-05
2.269379091e-05
2.342372017e-05
2.33900135e-05
2.331763493e-05
2.320944539e-05
2.306606782e-05
2.352246399e-05
2.348876316e-05
2.341604737e-05
2.330708544e-05
2.316261887e-05
2.334414968e-05
2.331128602e-05
2.324005995e-05
2.313308459e-05
2.299117786e-05
2.293320918e-05
2.290182498e-05
2.283354536e-05
2.27307884e-05
2.2594401e-05
2.234929851e-05
2.231980057e-05
2.225542543e-05
2.215838045e-05
2.202950091e-05
2.165143374e-05
2.162401752e-05
2.156403999e-05
2.147350033e-05
2.135319349e-05
2.088908248e-05
2.086378519e-05
2.08083425e-05
2.072455769e-05
2.061316854e-05
2.009918228e-05
2.007594283e-05
2.002494157e-05
1.994780319e-05
1.98452017e-05
1.930713626e-05
1.928583892e-05
1.923905505e-05
1.916824893e-05
1.907402919e-05
1.852935432e-05
1.850986058e-05
1.846700831e-05
1.840211881e-05
1.831573848e-05
1.777598704e-05
1.775815224e-05
1.771892761e-05
1.765950686e-05
1.758037842e-05
1.705313593e-05
1.703681974e-05
1.700092144e-05
1.694652134e-05
1.68740551e-05
1.636421032e-05
1.634927947e-05
1.631642111e-05
1.626661416e-05
1.620024655e-05
1.571073048e-05
1.56970624e-05
1.566697719e-05
1.562136374e-05
1.556056693e-05
1.509250124e-05
1.507997409e-05
1.505240614e-05
1.501060506e-05
1.495487729e-05
1.45112604e-05
1.449978045e-05
1.447450855e-05
1.44361802e-05
1.438506818e-05
1.396397636e-05
1.395343933e-05
1.393024255e-05
1.389505647e-05
1.384812365e-05
1.344817341e-05
1.34384882e-05
1.34171662e-05
1.338481974e-05
1.334166474e-05
1.296102312e-05
1.295210776e-05
1.293248018e-05
1.290270045e-05
1.286296122e-05
1.249991318e-05
1.249169463e-05
1.247360029e-05
1.244614325e-05
1.240949576e-05
1.206290833e-05
1.205531989e-05
1.203861226e-05
1.201325627e-05
1.197940618e-05
1.164883223e-05
1.164181057e-05
1.162635059e-05
1.160288565e-05
1.157155426e-05
1.125693074e-05
1.125041402e-05
1.123606659e-05
1.121428893e-05
1.118520572e-05
1.088617628e-05
1.088010501e-05
1.086673988e-05
1.08464532e-05
1.081935804e-05
1.053478949e-05
1.052911092e-05
1.051661249e-05
1.049764213e-05
1.047230329e-05
1.020004343e-05
1.019471588e-05
1.018299181e-05
1.016519765e-05
1.014142885e-05
9.878755941e-06
9.873752164e-06
9.862741536e-06
9.846030417e-06
9.823707324e-06
9.567594927e-06
9.562901693e-06
9.552573762e-06
9.536897957e-06
9.515956961e-06
9.264358878e-06
9.259974954e-06
9.250325665e-06
9.235677552e-06
9.216107345e-06
8.967972277e-06
8.963898164e-06
8.954927277e-06
8.941305082e-06
8.923102381e-06
8.680332663e-06
8.676565542e-06
8.668267505e-06
8.655663452e-06
8.638817423e-06
8.404132262e-06
8.40065156e-06
8.3929821e-06
8.381329927e-06
8.365752835e-06
8.146583985e-06
8.143359912e-06
8.136255856e-06
8.125461718e-06
8.111029378e-06
7.93037103e-06
7.927344706e-06
7.920676832e-06
7.910545347e-06
7.896997479e-06
2.458317502e-05
2.864291526e-05
3.016676648e-05
3.046398794e-05
3.052889598e-05
3.103637286e-05
3.207236482e-05
3.317475901e-05
3.394547356e-05
3.452997319e-05
3.501402572e-05
3.555996747e-05
3.607209198e-05
3.648316771e-05
3.700032214e-05
3.771453896e-05
3.891274862e-05
4.139152243e-05
4.69151048e-05
5.574095235e-05
6.358745248e-05
6.581326506e-05
6.172173697e-05
5.37949444e-05
4.499949844e-05
3.698467515e-05
3.089928055e-05
2.640952235e-05
2.332358376e-05
2.141919721e-05
2.048190491e-05
2.029760382e-05
2.06403259e-05
2.127523013e-05
2.19799802e-05
2.257474438e-05
2.294419015e-05
2.304097297e-05
2.28726925e-05
2.248131388e-05
2.192321457e-05
2.125436982e-05
2.052192231e-05
1.976130713e-05
1.899707554e-05
1.824523341e-05
1.751581205e-05
1.681492845e-05
1.614608927e-05
1.551094239e-05
1.490936999e-05
1.434331399e-05
1.380976464e-05
1.330637637e-05
1.283045169e-05
1.237950377e-05
1.195169317e-05
1.154589288e-05
1.116137415e-05
1.079714339e-05
1.04515174e-05
1.01219223e-05
9.805382509e-06
9.498767603e-06
9.200047948e-06
8.908172039e-06
8.625005628e-06
8.352983526e-06
8.099195289e-06
7.885882431e-06
3.470022506e-05
2.610823311e-06
7.786383219e-08
8.964855296e-09
2.981430429e-09
4.328791621e-05
4.592907208e-05
2.649937604e-06
8.23331611e-08
7.563058076e-08
4.646872289e-05
5.542642376e-05
5.097965082e-06
2.805223064e-07
2.894567793e-07
4.588964748e-05
5.117916366e-05
8.793046963e-06
6.941248428e-07
2.157004818e-07
4.418813502e-05
4.927533576e-05
2.140687442e-05
2.153672908e-06
2.263740424e-07
4.375521057e-05
5.07456568e-05
3.403841767e-05
4.260094643e-06
4.344307302e-07
4.428951306e-05
5.309331886e-05
4.280529077e-05
6.224755915e-06
7.224937599e-07
4.465670545e-05
5.322634267e-05
4.53652375e-05
7.89867616e-06
1.048337497e-06
4.441007851e-05
5.199242781e-05
4.581232459e-05
1.393548002e-05
2.043370844e-06
4.397296639e-05
5.095040325e-05
4.656227035e-05
1.930535077e-05
3.157674629e-06
4.348859109e-05
5.016757642e-05
4.737538276e-05
2.377863566e-05
4.279542449e-06
4.330510167e-05
4.958489576e-05
4.762936804e-05
2.770910879e-05
5.447959163e-06
4.316712629e-05
4.870387621e-05
4.737168688e-05
3.125703807e-05
8.658767829e-06
4.280908452e-05
4.794992319e-05
4.723891759e-05
3.407791561e-05
1.253685549e-05
4.270397947e-05
4.763979827e-05
4.734450031e-05
3.620210972e-05
1.571930855e-05
4.288323587e-05
4.761719169e-05
4.758947059e-05
3.797503883e-05
1.844649935e-05
4.362270027e-05
4.808837954e-05
4.826105251e-05
3.905003386e-05
1.965293484e-05
4.583479462e-05
5.018189108e-05
4.971414366e-05
3.873333106e-05
1.754290857e-05
5.196364548e-05
5.824430973e-05
5.957356996e-05
4.599490609e-05
1.411770699e-05
6.195093879e-05
7.213835393e-05
8.309034822e-05
9.349052621e-05
0.0001013230866
6.942935024e-05
7.881596223e-05
8.8286008e-05
9.698161038e-05
0.000101967986
6.9587681e-05
7.458641681e-05
7.781623957e-05
7.810914319e-05
7.414334185e-05
6.325232497e-05
6.41989481e-05
6.312701061e-05
5.972699168e-05
5.406043287e-05
5.389258883e-05
5.278221142e-05
5.024333345e-05
4.639367403e-05
4.156146587e-05
4.452957801e-05
4.286583702e-05
4.030175679e-05
3.703909308e-05
3.334079397e-05
3.640011292e-05
3.48530201e-05
3.275080464e-05
3.026676887e-05
2.758133728e-05
3.03896602e-05
2.915438295e-05
2.755819368e-05
2.573033051e-05
2.379166323e-05
2.600640439e-05
2.507718424e-05
2.390850528e-05
2.258956933e-05
2.119948484e-05
2.301374649e-05
2.232935767e-05
2.148536048e-05
2.053963473e-05
1.954225036e-05
2.117641055e-05
2.066691969e-05
2.005199107e-05
1.936616254e-05
1.863909164e-05
2.02791234e-05
1.988061978e-05
1.941333877e-05
1.889498678e-05
1.834101323e-05
2.011208012e-05
1.977195388e-05
1.938643819e-05
1.89618277e-05
1.850413739e-05
2.045610766e-05
2.013560342e-05
1.978250453e-05
1.939614292e-05
1.897688372e-05
2.10839701e-05
2.075911462e-05
2.040609085e-05
2.002082302e-05
1.96009986e-05
2.178013857e-05
2.144069918e-05
2.107150799e-05
2.066771214e-05
2.022648903e-05
2.236950462e-05
2.201589335e-05
2.162745e-05
2.120021334e-05
2.073219207e-05
2.273891875e-05
2.237790049e-05
2.197577969e-05
2.153028484e-05
2.104087411e-05
2.284109597e-05
2.248169598e-05
2.207547442e-05
2.162199043e-05
2.112221708e-05
2.2682445e-05
2.233305957e-05
2.193268915e-05
2.148248114e-05
2.098467592e-05
2.230331962e-05
2.197025745e-05
2.158396918e-05
2.114676479e-05
2.066177102e-05
2.17586241e-05
2.144576806e-05
2.10792588e-05
2.06621267e-05
2.019799617e-05
2.110325252e-05
2.08123768e-05
2.046887011e-05
2.007610791e-05
1.963790248e-05
2.038368829e-05
2.011502729e-05
1.979577907e-05
1.942938919e-05
1.901962636e-05
1.96350544e-05
1.938790056e-05
1.909281826e-05
1.875314634e-05
1.837246752e-05
1.888180244e-05
1.865493682e-05
1.838310737e-05
1.806944737e-05
1.771727932e-05
1.813995004e-05
1.793193459e-05
1.768201572e-05
1.7393073e-05
1.706813771e-05
1.741959407e-05
1.722894682e-05
1.699942055e-05
1.673362079e-05
1.643428184e-05
1.672692611e-05
1.655219505e-05
1.634149422e-05
1.609716878e-05
1.58216663e-05
1.606553403e-05
1.590535641e-05
1.571197164e-05
1.548747433e-05
1.523404306e-05
1.543713798e-05
1.529024621e-05
1.511274087e-05
1.490647889e-05
1.467339254e-05
1.484167136e-05
1.470687088e-05
1.454387607e-05
1.43543233e-05
1.41399168e-05
1.428116851e-05
1.415737601e-05
1.400761179e-05
1.383331758e-05
1.363599544e-05
1.3752635e-05
1.363881787e-05
1.350106649e-05
1.334064671e-05
1.315887865e-05
1.325378525e-05
1.314899953e-05
1.302213203e-05
1.287429391e-05
1.270664549e-05
1.278197504e-05
1.268537127e-05
1.256836394e-05
1.243192987e-05
1.227709004e-05
1.233476159e-05
1.224557771e-05
1.213750985e-05
1.201141926e-05
1.186820596e-05
1.19103338e-05
1.182787244e-05
1.172790809e-05
1.161120086e-05
1.147854521e-05
1.150757397e-05
1.143116905e-05
1.133851817e-05
1.123029167e-05
1.110719061e-05
1.112575678e-05
1.105475861e-05
1.096865798e-05
1.086804568e-05
1.075354077e-05
1.076390309e-05
1.069768763e-05
1.061740245e-05
1.052356796e-05
1.041673248e-05
1.042037438e-05
1.035839365e-05
1.028327224e-05
1.019547077e-05
1.009547771e-05
1.009266413e-05
1.003448183e-05
9.963990925e-06
9.881603937e-06
9.787759817e-06
9.777881296e-06
9.72321277e-06
9.65699282e-06
9.579598883e-06
9.491433638e-06
9.472978785e-06
9.421692327e-06
9.35954789e-06
9.286896962e-06
9.204113382e-06
9.175983445e-06
9.128060526e-06
9.069938469e-06
9.001947498e-06
8.924435491e-06
8.885842126e-06
8.841277399e-06
8.787150847e-06
8.723773138e-06
8.651470553e-06
8.60438781e-06
8.563142511e-06
8.512966272e-06
8.454148536e-06
8.386986499e-06
8.333944246e-06
8.295793037e-06
8.249325666e-06
8.194804231e-06
8.132495828e-06
8.081544572e-06
8.046170987e-06
8.003068959e-06
7.952468413e-06
7.894602829e-06
7.869284344e-06
7.83604115e-06
7.795546684e-06
7.74800302e-06
7.693616048e-06
1.093307777e-08
7.942784231e-08
2.339461228e-08
1.130510002e-08
8.864872754e-09
8.161643254e-09
7.916660602e-09
7.832075556e-09
7.80568433e-09
7.797955257e-09
7.794537635e-09
7.790449437e-09
7.785534285e-09
7.780996244e-09
7.778579245e-09
7.781127392e-09
7.777740424e-09
7.768469666e-09
7.764016283e-09
7.761469942e-09
7.759452688e-09
7.757573138e-09
7.755753447e-09
7.754027466e-09
7.75243623e-09
7.750981197e-09
7.749645421e-09
7.748427948e-09
7.747306986e-09
7.746260944e-09
7.74528718e-09
7.744374657e-09
7.743525462e-09
7.742738894e-09
7.742015091e-09
7.741352154e-09
7.740747659e-09
7.740198135e-09
7.739689141e-09
7.739223338e-09
7.738779986e-09
7.738358147e-09
7.737961508e-09
7.737577785e-09
7.737228421e-09
7.736949755e-09
7.736710184e-09
7.736508836e-09
7.736321788e-09
7.736167456e-09
7.736028302e-09
7.735907838e-09
7.735795336e-09
7.7356757e-09
7.735153285e-09
7.731303882e-09
7.707154254e-09
7.595737629e-09
7.208788453e-09
6.70029354e-09
1.461966345e-07
3.848186491e-07
8.008217996e-08
3.073389025e-08
2.253190315e-08
2.0420338e-08
1.969690908e-08
1.940992026e-08
1.929504314e-08
1.924645315e-08
1.922254079e-08
1.920473423e-08
1.918808707e-08
1.917213477e-08
1.916031214e-08
1.915857499e-08
1.91482396e-08
1.91272752e-08
1.911657069e-08
1.91101355e-08
1.910484818e-08
1.909960897e-08
1.909445187e-08
1.908969966e-08
1.908554312e-08
1.908183697e-08
1.907846653e-08
1.907553255e-08
1.907285423e-08
1.907046079e-08
1.906831314e-08
1.906629437e-08
1.906453575e-08
1.906297244e-08
1.906160271e-08
1.906040495e-08
1.905947291e-08
1.905871249e-08
1.905797254e-08
1.905736679e-08
1.905684991e-08
1.905631109e-08
1.905590236e-08
1.905566251e-08
1.905533118e-08
1.905519361e-08
1.905487134e-08
1.905480067e-08
1.90546822e-08
1.90548038e-08
1.90548881e-08
1.905496171e-08
1.905503548e-08
1.905522916e-08
1.90545316e-08
1.90492429e-08
1.902356105e-08
1.893831978e-08
1.877822699e-08
1.868480016e-08
3.899063044e-07
5.091341073e-07
1.201960571e-07
4.733582061e-08
3.501103045e-08
3.190649273e-08
3.082985445e-08
3.037471925e-08
3.016230787e-08
3.005715781e-08
3.000012132e-08
2.996260309e-08
2.99316414e-08
2.990257043e-08
2.987724787e-08
2.986265345e-08
2.984431959e-08
2.981998852e-08
2.980731117e-08
2.979891978e-08
2.979089292e-08
2.97822526e-08
2.977350245e-08
2.976531755e-08
2.975802471e-08
2.975157373e-08
2.974579744e-08
2.974073647e-08
2.973624635e-08
2.973232093e-08
2.972887845e-08
2.972587546e-08
2.972341338e-08
2.972133329e-08
2.971964539e-08
2.971832268e-08
2.971732609e-08
2.971651294e-08
2.971578533e-08
2.971525773e-08
2.971493549e-08
2.971476274e-08
2.971479164e-08
2.971511015e-08
2.97153809e-08
2.971587122e-08
2.971616903e-08
2.97168127e-08
2.971733709e-08
2.971816897e-08
2.971905513e-08
2.972009442e-08
2.972087495e-08
2.972211473e-08
2.972269486e-08
2.972221082e-08
2.971951597e-08
2.973283324e-08
2.98667608e-08
3.008435709e-08
6.591543612e-07
6.21936969e-07
1.861339952e-07
5.98982897e-08
4.327305068e-08
3.97692265e-08
3.859396592e-08
3.807133775e-08
3.780511892e-08
3.766338609e-08
3.758502631e-08
3.753777224e-08
3.750374886e-08
3.74740914e-08
3.744714847e-08
3.742768621e-08
3.741266532e-08
3.740186161e-08
3.739935764e-08
3.739793992e-08
3.739426906e-08
3.738835423e-08
3.738142958e-08
3.737461079e-08
3.736847797e-08
3.736309651e-08
3.735838642e-08
3.735435408e-08
3.735090677e-08
3.734802433e-08
3.734562237e-08
3.73436759e-08
3.734227497e-08
3.734131351e-08
3.734069919e-08
3.734047886e-08
3.734055765e-08
3.734076508e-08
3.734101776e-08
3.73414363e-08
3.734203928e-08
3.734277816e-08
3.734368731e-08
3.734485182e-08
3.734608726e-08
3.734748089e-08
3.734877135e-08
3.735027746e-08
3.735165627e-08
3.735334559e-08
3.73550391e-08
3.735696136e-08
3.735857379e-08
3.736081195e-08
3.736310936e-08
3.736871488e-08
3.738699211e-08
3.746256858e-08
3.770018289e-08
3.797197248e-08
8.864382402e-07
9.908469492e-07
4.950531387e-07
1.126659899e-07
5.263882074e-08
4.482855561e-08
4.300407525e-08
4.232110293e-08
4.199558816e-08
4.1826777e-08
4.173791457e-08
4.169099091e-08
4.166491756e-08
4.164774436e-08
4.163437117e-08
4.162532818e-08
4.162785341e-08
4.164257214e-08
4.165939644e-08
4.16721109e-08
4.167885243e-08
4.168091117e-08
4.168046296e-08
4.167913703e-08
4.167779947e-08
4.16767005e-08
4.167588453e-08
4.167538296e-08
4.167516677e-08
4.167523496e-08
4.167554206e-08
4.167608085e-08
4.167690175e-08
4.167796576e-08
4.167920012e-08
4.168064229e-08
4.168222437e-08
4.168383667e-08
4.168543038e-08
4.168709246e-08
4.16888345e-08
4.169060623e-08
4.169244199e-08
4.169440193e-08
4.169639568e-08
4.169845491e-08
4.170047307e-08
4.170255654e-08
4.170453897e-08
4.170670813e-08
4.170885279e-08
4.171117208e-08
4.171326994e-08
4.171595606e-08
4.171930611e-08
4.172760582e-08
4.17518329e-08
4.183008633e-08
4.20207001e-08
4.221007378e-08
5.207876028e-07
1.477452427e-06
1.059836446e-06
3.610234878e-07
8.509696338e-08
5.102208775e-08
4.587537561e-08
4.450286299e-08
4.396998543e-08
4.372641841e-08
4.361063525e-08
4.355705102e-08
4.353376156e-08
4.352433747e-08
4.352113876e-08
4.352248801e-08
4.354239426e-08
4.358020609e-08
4.361585336e-08
4.36433033e-08
4.366133957e-08
4.36721732e-08
4.367878317e-08
4.368332591e-08
4.368700694e-08
4.36903026e-08
4.369340393e-08
4.369640841e-08
4.369933741e-08
4.370222446e-08
4.37050683e-08
4.370788277e-08
4.371069882e-08
4.371351814e-08
4.371631209e-08
4.371910484e-08
4.372187177e-08
4.372457585e-08
4.372720272e-08
4.372980097e-08
4.373237709e-08
4.373489546e-08
4.373738097e-08
4.373985442e-08
4.374227295e-08
4.374467641e-08
4.374704033e-08
4.374939624e-08
4.375166018e-08
4.375395938e-08
4.375619787e-08
4.375851951e-08
4.376073317e-08
4.376340554e-08
4.376698604e-08
4.377488969e-08
4.37951195e-08
4.384965498e-08
4.396032576e-08
4.40598586e-08
2.338514799e-07
1.55026265e-06
1.770242081e-06
1.043872692e-06
2.683910877e-07
7.271546274e-08
5.025301212e-08
4.624607632e-08
4.504747533e-08
4.457229681e-08
4.436529097e-08
4.427522695e-08
4.423871896e-08
4.4226584e-08
4.422581162e-08
4.423212852e-08
4.426235136e-08
4.43142556e-08
4.436279142e-08
4.440164889e-08
4.44292331e-08
4.44476759e-08
4.44602652e-08
4.446960339e-08
4.447722044e-08
4.448386011e-08
4.448985507e-08
4.449537724e-08
4.450052245e-08
4.450535929e-08
4.450992463e-08
4.451425671e-08
4.451839425e-08
4.452235743e-08
4.452615169e-08
4.452980078e-08
4.453330818e-08
4.453667406e-08
4.453990432e-08
4.45430246e-08
4.454604386e-08
4.454895034e-08
4.455176203e-08
4.455448713e-08
4.455711182e-08
4.45596583e-08
4.456212527e-08
4.456453519e-08
4.456686268e-08
4.45691427e-08
4.457134765e-08
4.457356193e-08
4.457574566e-08
4.457828775e-08
4.458175008e-08
4.458844568e-08
4.46031145e-08
4.463575953e-08
4.469165726e-08
4.47372646e-08
1.579692381e-07
8.915178192e-07
2.384996138e-06
1.965424843e-06
9.137990672e-07
1.780134029e-07
6.336946222e-08
4.926770904e-08
4.616350545e-08
4.512977853e-08
4.471437856e-08
4.453915971e-08
4.446750472e-08
4.444195548e-08
4.443773076e-08
4.444526379e-08
4.448058206e-08
4.453955074e-08
4.459530528e-08
4.464160615e-08
4.467628141e-08
4.470080152e-08
4.471822016e-08
4.473131382e-08
4.474188533e-08
4.475091505e-08
4.475889899e-08
4.476609975e-08
4.477268437e-08
4.477875939e-08
4.478439849e-08
4.478966525e-08
4.479460752e-08
4.479926416e-08
4.480366066e-08
4.480782547e-08
4.481177828e-08
4.481553419e-08
4.481910906e-08
4.482252148e-08
4.482578404e-08
4.482890067e-08
4.48318851e-08
4.483474725e-08
4.483749064e-08
4.484012474e-08
4.484265134e-08
4.484508411e-08
4.484742448e-08
4.484968638e-08
4.485187307e-08
4.485403836e-08
4.485622559e-08
4.485874431e-08
4.486217309e-08
4.486811968e-08
4.487927957e-08
4.489970986e-08
4.492925427e-08
4.495048603e-08
2.275261328e-07
4.6657841e-07
2.922620135e-06
3.03189761e-06
2.087502557e-06
6.481125374e-07
1.136438363e-07
5.691550052e-08
4.823059272e-08
4.588659855e-08
4.503604502e-08
4.46912397e-08
4.454940328e-08
4.449491566e-08
4.447994924e-08
4.448498283e-08
4.452198021e-08
4.458436206e-08
4.46441501e-08
4.469514891e-08
4.473489351e-08
4.476422624e-08
4.478571605e-08
4.480202519e-08
4.481508317e-08
4.482605046e-08
4.48355777e-08
4.48440388e-08
4.485166889e-08
4.485862351e-08
4.486501402e-08
4.487092454e-08
4.487641982e-08
4.488155221e-08
4.488636135e-08
4.489088332e-08
4.48951459e-08
4.489917314e-08
4.490298575e-08
4.490660287e-08
4.491004058e-08
4.491331045e-08
4.491642613e-08
4.491939881e-08
4.492223751e-08
4.492495141e-08
4.492754622e-08
4.493003112e-08
4.493241238e-08
4.493470165e-08
4.493691513e-08
4.4939104e-08
4.494136084e-08
4.494398327e-08
4.494757353e-08
4.495338233e-08
4.496311172e-08
4.497844412e-08
4.499768459e-08
4.500935532e-08
3.617363142e-07
2.849099218e-07
2.461573656e-06
4.00251311e-06
3.326984273e-06
1.672770883e-06
3.097057666e-07
7.818401224e-08
5.256338413e-08
4.722593128e-08
4.553279309e-08
4.488435172e-08
4.46199907e-08
4.451398616e-08
4.447793583e-08
4.44755066e-08
4.451112386e-08
4.457470768e-08
4.463680569e-08
4.469094948e-08
4.473445867e-08
4.476772228e-08
4.47928203e-08
4.481214396e-08
4.482759325e-08
4.484042192e-08
4.485140201e-08
4.486101507e-08
4.486957551e-08
4.487729705e-08
4.488433058e-08
4.489078651e-08
4.489674885e-08
4.490228307e-08
4.490744129e-08
4.491226682e-08
4.491679478e-08
4.492105521e-08
4.492507322e-08
4.492887105e-08
4.493246772e-08
4.493587914e-08
4.493912016e-08
4.494220362e-08
4.494514043e-08
4.494794091e-08
4.495061338e-08
4.495316735e-08
4.49556117e-08
4.495795916e-08
4.496023301e-08
4.49624933e-08
4.496486967e-08
4.496768652e-08
4.497157808e-08
4.497762395e-08
4.498707076e-08
4.500066595e-08
4.501618556e-08
4.502394559e-08
5.364666037e-07
1.775001877e-07
1.293332282e-06
5.232827567e-06
4.845112535e-06
3.095082426e-06
8.450822574e-07
1.427025065e-07
6.216571848e-08
4.956688245e-08
4.629253213e-08
4.516280352e-08
4.472050303e-08
4.454102733e-08
4.447343151e-08
4.445805006e-08
4.448910014e-08
4.455198503e-08
4.461511576e-08
4.467134334e-08
4.471770211e-08
4.475422791e-08
4.478258198e-08
4.48048305e-08
4.482272659e-08
4.483751705e-08
4.485003872e-08
4.486086066e-08
4.487037989e-08
4.487887634e-08
4.488654875e-08
4.489354056e-08
4.489995812e-08
4.490588286e-08
4.491137882e-08
4.49164979e-08
4.492128255e-08
4.492576844e-08
4.492998552e-08
4.49339596e-08
4.493771283e-08
4.494126414e-08
4.494463022e-08
4.494782577e-08
4.495086332e-08
4.495375467e-08
4.495650973e-08
4.495913913e-08
4.496165437e-08
4.496407203e-08
4.496642331e-08
4.496878316e-08
4.49713149e-08
4.497438137e-08
4.497864247e-08
4.498507843e-08
4.499467778e-08
4.5007724e-08
4.502169841e-08
4.502733877e-08
7.508952958e-07
1.626965875e-07
7.835002201e-07
6.364055694e-06
6.893971867e-06
4.871718163e-06
1.823914633e-06
2.859498582e-07
8.199915129e-08
5.357948995e-08
4.747329144e-08
4.559348111e-08
4.488947024e-08
4.460172638e-08
4.448547286e-08
4.444816732e-08
4.446980483e-08
4.452929685e-08
4.45918291e-08
4.464898761e-08
4.469729017e-08
4.47363977e-08
4.476759017e-08
4.479260142e-08
4.481296868e-08
4.482984127e-08
4.484404676e-08
4.485620017e-08
4.486676802e-08
4.487609907e-08
4.488444817e-08
4.489199944e-08
4.489888731e-08
4.490521253e-08
4.491105279e-08
4.491647e-08
4.492151448e-08
4.492622802e-08
4.493064571e-08
4.493479726e-08
4.493870814e-08
4.49424e-08
4.49458917e-08
4.494919985e-08
4.495233883e-08
4.495532215e-08
4.49581612e-08
4.496086818e-08
4.496345721e-08
4.496594998e-08
4.496838798e-08
4.497086531e-08
4.497357904e-08
4.497692842e-08
4.498158156e-08
4.498843606e-08
4.499828408e-08
4.501109349e-08
4.502413355e-08
4.502810044e-08
1.285122867e-06
2.202612516e-07
6.071870619e-07
5.520258462e-06
9.090235582e-06
7.013947604e-06
3.206530001e-06
5.859026529e-07
1.21652689e-07
6.05905727e-08
4.925334178e-08
4.621166732e-08
4.514058298e-08
4.470495878e-08
4.452115354e-08
4.445199459e-08
4.445888505e-08
4.451180905e-08
4.457167272e-08
4.462829193e-08
4.46774067e-08
4.471821176e-08
4.47516112e-08
4.477900984e-08
4.480169868e-08
4.482066459e-08
4.483664973e-08
4.485025262e-08
4.486197339e-08
4.487221751e-08
4.488129715e-08
4.488944334e-08
4.489682479e-08
4.490356608e-08
4.490976152e-08
4.491548479e-08
4.492079498e-08
4.492574057e-08
4.493036193e-08
4.493469307e-08
4.493876286e-08
4.49425959e-08
4.494621342e-08
4.494963414e-08
4.495287445e-08
4.495594947e-08
4.495887227e-08
4.496165699e-08
4.496432093e-08
4.496689266e-08
4.496942617e-08
4.49720362e-08
4.497495222e-08
4.497860288e-08
4.498364684e-08
4.499089651e-08
4.500096843e-08
4.50135761e-08
4.502582937e-08
4.502814056e-08
2.032911368e-06
3.222179059e-07
4.569792967e-07
3.67343381e-06
1.211653252e-05
9.52691248e-06
4.815454354e-06
1.223333289e-06
1.991833787e-07
7.324980871e-08
5.187919959e-08
4.700646333e-08
4.545232239e-08
4.483952184e-08
4.457682833e-08
4.446985177e-08
4.445841316e-08
4.450222735e-08
4.455742524e-08
4.46118782e-08
4.466042907e-08
4.470179153e-08
4.47364809e-08
4.476559406e-08
4.479017742e-08
4.481102504e-08
4.482873556e-08
4.484382312e-08
4.485676516e-08
4.486799021e-08
4.487785414e-08
4.488663318e-08
4.489453345e-08
4.490170724e-08
4.490826856e-08
4.491430503e-08
4.491988578e-08
4.49250667e-08
4.492989384e-08
4.493440573e-08
4.493863489e-08
4.494260911e-08
4.494635223e-08
4.494988516e-08
4.495322625e-08
4.495639219e-08
4.495939808e-08
4.496226053e-08
4.496500095e-08
4.496765646e-08
4.497029532e-08
4.497305321e-08
4.497618866e-08
4.49801499e-08
4.498557275e-08
4.499317858e-08
4.500341943e-08
4.501579567e-08
4.502729055e-08
4.502788075e-08
2.810453993e-06
4.672552005e-07
4.255422448e-07
2.959375926e-06
1.680119468e-05
1.236845743e-05
6.353548246e-06
2.127263587e-06
3.677792553e-07
1.008733487e-07
5.68456239e-08
4.833386509e-08
4.59483579e-08
4.505649252e-08
4.467514862e-08
4.451239349e-08
4.447409005e-08
4.45041497e-08
4.45517653e-08
4.460198789e-08
4.46483733e-08
4.468893725e-08
4.472376062e-08
4.47536447e-08
4.477940871e-08
4.480165532e-08
4.482081458e-08
4.483726545e-08
4.485140238e-08
4.486362633e-08
4.487430516e-08
4.488374527e-08
4.489218554e-08
4.489980614e-08
4.490674248e-08
4.491309772e-08
4.491895225e-08
4.492437018e-08
4.492940373e-08
4.493409628e-08
4.49384843e-08
4.49425989e-08
4.494646669e-08
4.495011084e-08
4.495355158e-08
4.495680736e-08
4.495989571e-08
4.496283643e-08
4.496565616e-08
4.49684019e-08
4.497115735e-08
4.497407875e-08
4.497744852e-08