/*--------------------------------*- C++ -*----------------------------------*\
  =========                 |
  \\      /  F ield         | OpenFOAM: The Open Source CFD Toolbox
   \\    /   O peration     | Website:  https://openfoam.org
    \\  /    A nd           | Version:  10
     \\/     M anipulation  |
\*---------------------------------------------------------------------------*/
FoamFile
{
    format      ascii;
    class       volScalarField;
    location    "0.02499901733";
    object      CH4;
}
// * * * * * * * * * * * * * * * * * * * * * * * * * * * * * * * * * * * * * //

dimensions      [0 0 0 0 0 0 0];

internalField   nonuniform List<scalar> 
5170
(
0.1560999976
0.1560999976
0.1560999977
0.1560999979
0.1560999998
0.1560999953
0.1560999953
0.1560999954
0.1560999957
0.1560999973
0.1560999931
0.1560999931
0.1560999932
0.1560999935
0.1560999948
0.1560999908
0.1560999908
0.1560999909
0.1560999913
0.1560999924
0.1560999885
0.1560999886
0.1560999887
0.156099989
0.1560999898
0.1560999863
0.1560999863
0.1560999865
0.1560999868
0.1560999873
0.1560999841
0.1560999841
0.1560999843
0.1560999845
0.1560999848
0.1560999819
0.156099982
0.1560999821
0.1560999823
0.1560999823
0.1560999797
0.1560999798
0.1560999799
0.15609998
0.1560999797
0.1560999776
0.1560999776
0.1560999777
0.1560999777
0.1560999772
0.1560999755
0.1560999755
0.1560999755
0.1560999754
0.1560999746
0.1560999733
0.1560999734
0.1560999734
0.1560999731
0.156099972
0.1560999712
0.1560999712
0.1560999712
0.1560999708
0.1560999695
0.1560999692
0.1560999691
0.156099969
0.1560999684
0.1560999669
0.1560999671
0.1560999671
0.1560999669
0.1560999661
0.1560999644
0.156099965
0.156099965
0.1560999647
0.1560999637
0.1560999618
0.156099963
0.1560999629
0.1560999626
0.1560999614
0.1560999593
0.1560999609
0.1560999608
0.1560999604
0.156099959
0.1560999567
0.1560999588
0.1560999586
0.1560999573
0.1560999499
0.1560999269
0.1560999467
0.1560998998
0.156099501
0.1560967347
0.1560843308
0
1.028664631e-17
0
4.451108518e-17
4.833662946e-17
2.935036894e-17
5.930201333e-17
5.57771409e-17
6.420797389e-17
4.232103901e-17
3.268132384e-17
5.168193211e-17
3.835601058e-17
3.158179966e-17
2.276252281e-17
3.600958224e-17
2.045794613e-17
1.851362832e-17
2.434050002e-18
0
0
0
0
0
0
0
0
0
3.265237253e-12
5.34278941e-11
0
0
0
0
0
0
0
0
0
0
0
0
0
0
0
0
0
0
0
0
0
0
0
0
0
0
0
0
0
0
0
0
0
0
0
0
0
0
0
0
0
0
0
0
0
0
0
0
0
0
0
0
0
0
0
0
0
0
0
0
8.851289839e-07
0
0
0
0
0.0002457176757
3.543120703e-05
4.157528266e-06
6.093781179e-09
0
0.1560995711
0.1560969607
0.1560537352
0.1554106823
0.1468655267
0.1560978557
0.1560857564
0.1559260427
0.1542746707
0.1422038383
0.1560929288
0.1560573462
0.1556726643
0.1527125141
0.1387427938
0.1560815319
0.1559990126
0.1552500341
0.1507769951
0.1359512043
0.1560579506
0.1558900357
0.1545937804
0.1485592057
0.1336391459
0.1560117017
0.1556931626
0.1536321503
0.1462088596
0.1315561931
0.1559258261
0.155362856
0.1523556937
0.1438253835
0.1294899157
0.1557741337
0.1548438223
0.1507755678
0.1414481537
0.1274421737
0.155514771
0.1540690085
0.1489267675
0.1391033296
0.1254505681
0.155084791
0.1529770628
0.1468530621
0.1367590542
0.1234725732
0.154388069
0.1515030144
0.1445945701
0.1344134994
0.1215179852
0.153201375
0.1495972021
0.142191422
0.1320267707
0.1195306546
0.1514413642
0.1472998772
0.1396359537
0.1295769305
0.1174966315
0.1489280118
0.144560822
0.1368686896
0.1270056993
0.115350017
0.1455627378
0.1413195086
0.1338155103
0.1242461199
0.1130386734
0.1415284478
0.137555256
0.1303707162
0.121181362
0.1104723991
0.1366141227
0.1330356707
0.1263439731
0.1176630392
0.1075074827
0.1310220555
0.127862697
0.1217015488
0.1134861696
0.1037437656
0.1246893566
0.1217808585
0.1159506875
0.1080354128
0.09856543422
0.116570362
0.1138381975
0.1083113306
0.1008006208
0.09192524082
0.1052370666
0.1029165844
0.09822692516
0.09189439733
0.08447701932
0.09194279303
0.09034890648
0.08700724102
0.08234357259
0.0767617603
0.07987818406
0.07881636054
0.07654714812
0.07330018742
0.0693021331
0.06987098223
0.06914761591
0.06758227879
0.06530758272
0.06246643922
0.06182290314
0.06132450447
0.06024386251
0.05866364661
0.0566617543
0.05555904378
0.05520427957
0.05443087581
0.05328686739
0.05181973916
0.05068755856
0.05042040243
0.04983642711
0.04896906276
0.0478491443
0.04673390154
0.0465257206
0.04607024803
0.04539166769
0.0445112381
0.04344630618
0.04328012406
0.04291632777
0.0423730409
0.04166545662
0.04065255684
0.04051760119
0.04022200269
0.03977967081
0.03920170706
0.03822660955
0.03811552843
0.03787207531
0.03750708553
0.0370287877
0.03606989421
0.03597733106
0.03577430109
0.03546936522
0.03506871055
0.03410772163
0.03402968396
0.03385835511
0.03360059054
0.03326112137
0.03229483322
0.03222834752
0.03208223753
0.03186207731
0.03157155009
0.03061619704
0.03055902726
0.03043329258
0.03024359115
0.02999283371
0.02907636669
0.02902677429
0.02891765529
0.02875286562
0.02853473424
0.0276831279
0.02763971754
0.02754420061
0.02739986328
0.0272085893
0.02643615932
0.02639781286
0.02631346319
0.02618595703
0.02601683673
0.02532441335
0.02529024739
0.02521513166
0.02510156462
0.02495082487
0.02432968577
0.0242990194
0.02423163167
0.02412973917
0.02399441595
0.02343164236
0.0234039526
0.02334313284
0.02325116371
0.02312895808
0.02261164115
0.02258652487
0.02253137401
0.02244796795
0.02233709094
0.02185451582
0.02183165361
0.02178146135
0.02170554314
0.02160457849
0.02114884994
0.02112798239
0.02108217174
0.02101286823
0.02092066501
0.02048639537
0.02046730461
0.02042539431
0.02036197855
0.02027757795
0.01986125449
0.01984375473
0.01980533431
0.01974718678
0.01966977141
0.01926913846
0.01925306802
0.01921778259
0.01916436832
0.01909323185
0.01870681778
0.0186920355
0.01865957461
0.01861042576
0.01854495035
0.01817174343
0.01815812443
0.01812821482
0.01808291976
0.01802256136
0.01766179311
0.0176492271
0.01762162668
0.01757982074
0.01752409719
0.01717508654
0.01716347448
0.01713796752
0.01709932586
0.01704780755
0.01671023936
0.01669949462
0.01667588939
0.01664012237
0.01659242554
0.01626567421
0.01625571787
0.01623384245
0.0162006911
0.01615647285
0.01584008802
0.01583085017
0.01581055127
0.01577978441
0.0157387384
0.0154322918
0.01542370992
0.01540485069
0.01537626182
0.01533811424
0.01504120553
0.01503322358
0.01501568108
0.01498908468
0.01495358945
0.01466585073
0.01465841831
0.01464208224
0.01461731177
0.01458424787
0.01430532663
0.01429839821
0.01428316866
0.01426007328
0.01422924049
0.01395881288
0.01395234748
0.0139381347
0.01391657882
0.01388779705
0.01362552754
0.01361948777
0.01360620975
0.01358606947
0.01355917409
0.01330477442
0.01329912672
0.01328670989
0.01326787403
0.01324271728
0.01299585126
0.01299056457
0.01297894074
0.0129613062
0.01293775101
0.01269819306
0.01269323971
0.01268234824
0.01266582333
0.01264374775
0.01241113658
0.0124064905
0.01239627407
0.01238077208
0.01236006075
0.0121343046
0.0121299435
0.01212035332
0.01210580047
0.01208635522
0.01186689854
0.01186280051
0.01185378828
0.0118401114
0.01182183479
0.01160891392
0.01160506132
0.01159658856
0.01158372953
0.01156654427
0.01135953332
0.01135590642
0.01134792952
0.01133582222
0.01131964029
0.01112264817
0.01111923202
0.01111171869
0.01110031451
0.01108507113
0.01091924747
0.01091600281
0.01090886606
0.01089803267
0.01088355092
0.1223373036
0.1215203632
0.1209570301
0.120272577
0.119444115
0.1184029235
0.1171359453
0.1157765713
0.1144097313
0.1129853643
0.1115344326
0.1099993776
0.1083923766
0.1066608417
0.1047431805
0.102593511
0.1000295276
0.09651990191
0.09154081268
0.08551849165
0.07918048046
0.07272742966
0.06633591643
0.06033885405
0.05512961363
0.05068223087
0.04697359832
0.04381850293
0.04110582426
0.03874255073
0.0366473444
0.03474819772
0.03298893549
0.03133821637
0.02979113598
0.02835897302
0.02705413864
0.02587994427
0.02482850955
0.02388436048
0.02302937767
0.02224659986
0.02152207596
0.02084525012
0.02020849348
0.01960636668
0.01903494077
0.01849127531
0.01797306257
0.01747838401
0.01700553093
0.01655327428
0.01612016763
0.01570502976
0.01530677905
0.01492442703
0.01455707785
0.01420389935
0.01386413767
0.01353706192
0.01322203148
0.01291837945
0.01262559063
0.01234302362
0.01207035766
0.01180679703
0.01155240308
0.01130632369
0.01107252567
0.01087163095
0.07296205838
0.005314485231
0.0001516625616
3.793432041e-06
1.276943726e-07
0.08425437086
0.02701000109
0.001569619608
4.726187775e-05
2.49207114e-06
0.08968721835
0.04231006838
0.003848490666
0.0002000475322
1.326289781e-05
0.092968166
0.05047624994
0.006474102474
0.0004995638967
3.017515049e-05
0.09488329103
0.05553681659
0.01227835499
0.001239226737
8.97748232e-05
0.0959118631
0.059460144
0.01976083679
0.002470514992
0.0002261594349
0.09634602339
0.0626125535
0.02618755572
0.003794961796
0.0004271412496
0.09645242824
0.06524086638
0.03169978962
0.005164575591
0.0006757813557
0.09636000176
0.06731069654
0.03603479919
0.007632230546
0.00112485213
0.09603963143
0.06881345326
0.03932059073
0.01081330829
0.001765865714
0.09555129914
0.06988559258
0.04197073058
0.01419488477
0.002543719958
0.09486917104
0.07060465389
0.04426957452
0.01772414119
0.00343055391
0.09404177459
0.07111724057
0.04640166402
0.02136946773
0.004771018047
0.09305525487
0.07140050433
0.04815454843
0.02445477167
0.006661290624
0.09182776247
0.0713121194
0.04936652151
0.02691612696
0.00869960336
0.09037720485
0.07101052
0.05032595137
0.02902735048
0.01072500883
0.08848679874
0.07009078862
0.05031141853
0.02969025238
0.01147166623
0.0854405429
0.06744193285
0.04781531255
0.02715688616
0.009391692247
0.08090258475
0.06345320756
0.0444233521
0.02398461887
0.006746413546
0.0760395767
0.06102465783
0.04589460084
0.031612489
0.020080314
0.07144642439
0.05944024366
0.04793125251
0.03763674082
0.02933410452
0.06686917647
0.05759301753
0.04864976688
0.04060987837
0.03380738807
0.06202648107
0.05498945957
0.04808782493
0.04169255641
0.03600494593
0.05725389381
0.05204035917
0.04672468589
0.04160208041
0.03685307199
0.05289688143
0.04898261472
0.04486274202
0.04075635469
0.03681418687
0.04902049374
0.04603154996
0.04280198631
0.03949121283
0.03621925385
0.04569211058
0.04334298826
0.04075407404
0.03804312317
0.03530463052
0.04280291171
0.04091505153
0.03880317567
0.03655559395
0.03424650136
0.04028385048
0.03873987074
0.03699250492
0.03510888912
0.03314732746
0.03806683911
0.03678714156
0.03532491571
0.03373162873
0.03205313687
0.03608518092
0.03501280244
0.03377690882
0.03241722809
0.03096994101
0.03427573269
0.03336787556
0.03231305434
0.03114229271
0.02988439602
0.03258821094
0.03181223938
0.03090363442
0.02988705297
0.02878576826
0.03099539009
0.03032644076
0.02953760565
0.02864883093
0.02767919365
0.02949523489
0.02891413552
0.02822490548
0.0274438434
0.02658671272
0.02810106884
0.02759250129
0.02698682268
0.02629735866
0.02553714016
0.02682698743
0.02637839061
0.02584289588
0.0252313527
0.02455449996
0.02567782938
0.02527893023
0.0248023515
0.02425689877
0.02365140517
0.02464707912
0.02428966123
0.02386265838
0.02337322836
0.02282865293
0.02372037715
0.02339801987
0.02301305158
0.0225713305
0.02207889908
0.02288043131
0.022588165
0.02223924808
0.02183852678
0.02139106318
0.02211084735
0.02184479514
0.0215271987
0.02116211679
0.02075383533
0.02139804555
0.02115511147
0.02086504873
0.02053129757
0.02015752315
0.02073171322
0.02050935047
0.02024372448
0.01993778166
0.01959468313
0.02010439117
0.01990044767
0.01965666617
0.01937559143
0.01905996848
0.01951076771
0.0193233858
0.01909923218
0.018840519
0.01854964262
0.01894702022
0.01877457749
0.01856812961
0.01832960906
0.0180611163
0.01841029881
0.01825136424
0.01806093478
0.01784070524
0.01759252261
0.01789837563
0.01775168087
0.01757577785
0.01737215756
0.01714244824
0.01740940212
0.01727381798
0.01711111438
0.01692260623
0.01670973214
0.01694173055
0.0168162471
0.01666555631
0.01649082035
0.01629331265
0.01649418815
0.01637789967
0.01623815436
0.01607598218
0.01589251291
0.01606537529
0.01595747013
0.01582771458
0.01567702325
0.0155064003
0.01565415557
0.01555390716
0.01543328455
0.01529310154
0.01513425228
0.01525948677
0.01516624395
0.01505398528
0.01492343632
0.01477539463
0.01488041412
0.01479359046
0.01468900241
0.01456729805
0.01442918994
0.0145160722
0.01443513986
0.01433759768
0.01422402553
0.01409506103
0.01416565428
0.01409013411
0.01399907005
0.01389298176
0.0137724407
0.01382843107
0.01375789152
0.01367279359
0.01357360378
0.01346083494
0.01350369079
0.01343773646
0.01335813503
0.01326530589
0.01315971001
0.01319081335
0.01312908917
0.01305456205
0.0129676096
0.01286864667
0.01288914525
0.0128313209
0.01276147493
0.01267994787
0.0125871136
0.01259818939
0.01254397119
0.01247845672
0.01240195348
0.01231479889
0.01231731306
0.01226642204
0.01220490642
0.01213304438
0.01205114094
0.01204621576
0.01199841528
0.01194061624
0.01187307045
0.01179605376
0.01178410429
0.01173915781
0.01168479239
0.01162123649
0.01154874022
0.01153106325
0.01148878555
0.01143763245
0.01137781139
0.01130954893
0.01128622994
0.01124640705
0.01119821034
0.01114182893
0.01107746901
0.01105359399
0.01101606938
0.01097064113
0.01091748073
0.01085677462
0.01085364402
0.01081797796
0.01077478982
0.01072423747
0.01066649279
3.830674394e-08
2.314189306e-09
0
0
0
0
0
0
0
0
0
0
0
0
0
0
0
0
0
0
0
0
0
0
0
0
0
0
0
0
0
0
0
0
0
0
0
0
0
0
0
0
0
0
0
0
0
0
0
0
0
0
0
0
0
0
0
0
0
0
8.870087016e-07
2.286511152e-07
6.537935486e-08
1.035765809e-08
7.431867531e-10
0
0
0
0
0
0
0
0
0
0
0
0
0
0
0
0
0
0
0
0
0
0
0
0
0
0
0
0
0
0
0
0
0
0
0
0
0
0
0
0
0
0
0
0
0
0
0
0
0
0
0
0
0
0
0
5.333980717e-06
3.575880213e-06
6.649920424e-07
1.257542397e-07
3.632239647e-08
1.417522002e-08
5.792339701e-09
1.694997419e-09
0
0
0
0
0
0
0
0
0
0
0
0
0
0
0
0
0
0
0
0
0
0
0
0
0
0
0
0
0
0
0
0
0
0
0
0
0
0
0
0
0
0
0
0
0
0
0
0
0
0
0
0
1.470392558e-05
1.527910423e-05
5.355161203e-06
8.847894854e-07
2.442549961e-07
1.068248131e-07
5.715740827e-08
3.156988489e-08
1.629766219e-08
7.192752766e-09
2.075872964e-09
0
0
0
0
0
0
0
0
0
0
0
0
0
0
0
0
0
0
0
0
0
0
0
0
0
0
0
0
0
0
0
0
0
0
0
0
0
0
0
0
0
0
0
0
0
0
0
0
0
2.560038065e-05
3.320680297e-05
2.790864806e-05
6.242113339e-06
1.279462306e-06
4.626006737e-07
2.347266825e-07
1.340909971e-07
7.729733672e-08
4.244232881e-08
2.100599814e-08
8.564999648e-09
2.269321142e-09
0
0
0
0
0
0
0
0
0
0
0
0
0
0
0
0
0
0
0
0
0
0
0
0
0
0
0
0
0
0
0
0
0
0
0
0
0
0
0
0
0
0
0
0
0
0
0
2.755569927e-05
4.540970128e-05
6.227711789e-05
3.186083789e-05
6.095058981e-06
1.598423693e-06
6.885399526e-07
3.73108314e-07
2.163757959e-07
1.249547858e-07
6.896185723e-08
3.494034071e-08
1.52244637e-08
4.866220237e-09
4.68618559e-10
0
0
0
0
0
0
0
0
0
0
0
0
0
0
0
0
0
0
0
0
0
0
0
0
0
0
0
0
0
0
0
0
0
0
0
0
0
0
0
0
0
0
0
0
0
3.269171392e-05
4.407760707e-05
8.914998454e-05
8.865713994e-05
2.940527477e-05
5.679216949e-06
1.835419912e-06
8.802336926e-07
4.922472576e-07
2.858616061e-07
1.642419224e-07
9.048391084e-08
4.618773966e-08
2.06563706e-08
7.133666448e-09
1.232992919e-09
0
0
0
0
0
0
0
0
0
0
0
0
0
0
0
0
0
0
0
0
0
0
0
0
0
0
0
0
0
0
0
0
0
0
0
0
0
0
0
0
0
0
0
0
5.341896769e-05
3.038680807e-05
9.954541706e-05
0.0001451187095
0.0001000481564
2.279706435e-05
5.174368171e-06
2.015955581e-06
1.032130229e-06
5.83106125e-07
3.370969771e-07
1.924910069e-07
1.057030583e-07
5.405254482e-08
2.442334564e-08
8.717251029e-09
1.730411507e-09
0
0
0
0
0
0
0
0
0
0
0
0
0
0
0
0
0
0
0
0
0
0
0
0
0
0
0
0
0
0
0
0
0
0
0
0
0
0
0
0
0
0
0
0.0001032099897
2.181743388e-05
9.835615701e-05
0.0001877493309
0.000205241637
8.718901891e-05
1.634773764e-05
4.672148256e-06
2.070454836e-06
1.103086093e-06
6.275397893e-07
3.626772905e-07
2.069607685e-07
1.136412693e-07
5.813963783e-08
2.630307633e-08
9.438384657e-09
1.938698319e-09
0
0
0
0
0
0
0
0
0
0
0
0
0
0
0
0
0
0
0
0
0
0
0
0
0
0
0
0
0
0
0
0
0
0
0
0
0
0
0
0
0
0
0.0001877752716
2.215517758e-05
7.881777456e-05
0.0002213246901
0.0003016260831
0.0002266199333
5.569698358e-05
1.143077674e-05
4.118693162e-06
1.998272456e-06
1.095331183e-06
6.297366937e-07
3.663105012e-07
2.099551329e-07
1.15497873e-07
5.89910972e-08
2.654501308e-08
9.44952959e-09
1.878206297e-09
0
0
0
0
0
0
0
0
0
0
0
0
0
0
0
0
0
0
0
0
0
0
0
0
0
0
0
0
0
0
0
0
0
0
0
0
0
0
0
0
0
0.0003091872534
3.147394578e-05
4.80082454e-05
0.0002387012689
0.0004077911686
0.0004221242547
0.0001618900315
3.163996871e-05
8.745716721e-06
3.632937034e-06
1.849690666e-06
1.034188226e-06
6.026761769e-07
3.541094786e-07
2.041111572e-07
1.123082123e-07
5.706703781e-08
2.542469627e-08
8.79536594e-09
1.577577626e-09
0
0
0
0
0
0
0
0
0
0
0
0
0
0
0
0
0
0
0
0
0
0
0
0
0
0
0
0
0
0
0
0
0
0
0
0
0
0
0
0
0.0004639605447
5.043386902e-05
3.296231931e-05
0.0002392727135
0.0005356202295
0.0006628318473
0.0003851599364
8.106464049e-05
1.898838966e-05
6.547443476e-06
3.007537626e-06
1.608519495e-06
9.288747172e-07
5.534695432e-07
3.293445568e-07
1.905871459e-07
1.045496044e-07
5.267015963e-08
2.292781517e-08
7.507237263e-09
1.064490207e-09
0
0
0
0
0
0
0
0
0
0
0
0
0
0
0
0
0
0
0
0
0
0
0
0
0
0
0
0
0
0
0
0
0
0
0
0
0
0
0
0.0007074822229
8.450538512e-05
3.018836782e-05
0.0002090236601
0.0006887550231
0.0009814833123
0.0007517816126
0.0001985713792
4.218709242e-05
1.199289208e-05
4.782010842e-06
2.396404098e-06
1.35682212e-06
8.128144614e-07
4.940411118e-07
2.960574415e-07
1.709971286e-07
9.304289169e-08
4.590774067e-08
1.919226177e-08
5.70163482e-09
4.316638896e-10
0
0
0
0
0
0
0
0
0
0
0
0
0
0
0
0
0
0
0
0
0
0
0
0
0
0
0
0
0
0
0
0
0
0
0
0
0
0
0.00107890231
0.0001428588514
3.414955981e-05
0.0001684838675
0.000873097189
0.001400096267
0.001269205111
0.0004798270302
9.52197445e-05
2.322437256e-05
7.728836711e-06
3.520414448e-06
1.923008259e-06
1.144988639e-06
7.03079441e-07
4.30804202e-07
2.575655065e-07
1.474200675e-07
7.854615373e-08
3.738014239e-08
1.459867952e-08
3.675591454e-09
2.973917412e-12
0
0
0
0
0
0
0
0
0
0
0
0
0
0
0
0
0
0
0
0
0
0
0
0
0
0
0
0
0
0
0
0
0
0
0
0
0
0.001547708437
0.0002296534497
4.862563864e-05
0.0001676634519
0.001167813449
0.00196372454
0.001885631052
0.0009907766589
0.0002242755116
4.88747641e-05
1.309081484e-05
5.199713765e-06
2.68530035e-06
1.570646385e-06
9.648138302e-07
5.981546066e-07
3.656217209e-07
2.163545953e-07
1.212222392e-07
6.242344115e-08
2.802411679e-08
9.737910299e-09
1.743972383e-09
0
0
0
0
0
0
0
0
0
0
0
0
0
0
0
0
0
0
0
0
0
0
0
0
0
0
0
0
0
0
0
0
0
0
0
0
0
0.002080670731
0.0003418582394
7.895473224e-05
0.0002494176279
0.001786222005
0.002761967648
0.0025855932
0.001664959934
0.0005175515235
0.0001130532566
2.438074992e-05
8.04427677e-06
3.79936153e-06
2.14406243e-06
1.302418111e-06
8.092462414e-07
5.009068305e-07
3.030339948e-07
1.755737909e-07
9.517253394e-08
4.652162561e-08
1.908502194e-08
5.431153253e-09
2.803630646e-10
0
0
0
0
0
0
0
0
0
0
0
0
0
0
0
0
0
0
0
0
0
0
0
0
0
0
0
0
0
0
0
0
0
0
0
0
0.002357134379
0.0004229809884
0.0001853356878
0.0009365445525
0.00311503729
0.003853653227
0.003367332425
0.00231976719
0.001051359904
0.0002801998445
5.466974951e-05
1.433877434e-05
5.800177679e-06
3.034809746e-06
1.784231718e-06
1.098143592e-06
6.819761671e-07
4.176144114e-07
2.472515529e-07
1.387662395e-07
7.181017127e-08
3.264897084e-08
1.173484154e-08
2.38520341e-09
0
0
0
0
0
0
0
0
0
0
0
0
0
0
0
0
0
0
0
0
0
0
0
0
0
0
0
0
0
0
0
0
0
0
0
0
0.001956395233
0.0003976022216
0.0004938843837
0.003301133245
0.005108354066
0.005111852505
0.004205008938
0.002987940923
0.001731885628
0.0006864510327
0.0001643008264
3.557499554e-05
1.082071538e-05
4.750648002e-06
2.580335654e-06
1.538299e-06
9.469100345e-07
5.822352226e-07
3.497061286e-07
2.013727417e-07
1.087318286e-07
5.319728437e-08
2.207533149e-08
6.562715743e-09
5.681639716e-10
0
0
0
0
0
0
0
0
0
0
0
0
0
0
0
0
0
0
0
0
0
0
0
0
0
0
0
0
0
0
0
0
0
0
0
0.001562645845
0.001046716401
0.004479322672
0.007026932306
0.007288643936
0.006423439821
0.005139873017
0.003781648568
0.002506306338
0.001372337991
0.0005175477534
0.0001258251831
2.876060297e-05
9.18139283e-06
4.157800758e-06
2.295241892e-06
1.374051498e-06
8.40796768e-07
5.096411494e-07
2.996450799e-07
1.675896852e-07
8.69386137e-08
4.009764901e-08
1.505046934e-08
3.557433459e-09
0
0
0
0
0
0
0
0
0
0
0
0
0
0
0
0
0
0
0
0
0
0
0
0
0
0
0
0
0
0
0
0
0
0
0
0.0132653838
0.01147929104
0.0112962602
0.0106211857
0.009364840726
0.007838408197
0.006259872334
0.004754661265
0.003394516308
0.002207399096
0.001190500909
0.000445111798
0.000108925521
2.542686315e-05
8.309771993e-06
3.827426945e-06
2.130593354e-06
1.27498767e-06
7.745303229e-07
4.633103958e-07
2.673370241e-07
1.457904937e-07
7.303479827e-08
3.194858131e-08
1.089524735e-08
1.998734081e-09
0
0
0
0
0
0
0
0
0
0
0
0
0
0
0
0
0
0
0
0
0
0
0
0
0
0
0
0
0
0
0
0
0
0
0.02290250597
0.01871861397
0.01589089932
0.01354820854
0.01141049824
0.009419423652
0.007581891776
0.005917025178
0.004437409083
0.003146956669
0.002039710248
0.001099894187
0.0004120750593
0.0001004732407
2.357559312e-05
7.824486764e-06
3.653351399e-06
2.046056507e-06
1.225131277e-06
7.407475934e-07
4.39078731e-07
2.50029744e-07
1.339202799e-07
6.540881049e-08
2.747412292e-08
8.640233856e-09
1.172595091e-09
0
0
0
0
0
0
0
0
0
0
0
0
0
0
0
0
0
0
0
0
0
0
0
0
0
0
0
0
0
0
0
0
0
0.02777615494
0.02288989436
0.01912332968
0.01604872121
0.01341840014
0.01110673288
0.009054423237
0.007232293446
0.005622410992
0.004210407353
0.002984507201
0.001934876707
0.001045138195
0.0003908729861
9.407435076e-05
2.218155741e-05
7.509386331e-06
3.559706317e-06
2.012929909e-06
1.209023483e-06
7.297889306e-07
4.304745976e-07
2.432753437e-07
1.288844544e-07
6.188993222e-08
2.529493851e-08
7.487240096e-09
7.270831981e-10
0
0
0
0
0
0
0
0
0
0
0
0
0
0
0
0
0
0
0
0
0
0
0
0
0
0
0
0
0
0
0
0
0.03052543237
0.02563286042
0.02160289901
0.01822553722
0.01533651553
0.01281707674
0.01059775173
0.008634920955
0.00689871487
0.005366380525
0.004020015076
0.002847289373
0.001842340895
0.0009920637443
0.0003672233039
8.651009361e-05
2.064885429e-05
7.204694682e-06
3.499551233e-06
2.003788976e-06
1.209235487e-06
7.302098603e-07
4.29887191e-07
2.419192754e-07
1.271966311e-07
6.042616959e-08
2.422675737e-08
6.844499044e-09
4.502302894e-10
0
0
0
0
0
0
0
0
0
0
0
0
0
0
0
0
0
0
0
0
0
0
0
0
0
0
0
0
0
0
0
0.03206159593
0.0275005474
0.02352674053
0.02008036229
0.01708006352
0.01444606879
0.01211376693
0.01004179091
0.008198866115
0.006560236734
0.005106120956
0.003821859048
0.002699034952
0.001736973027
0.0009272462399
0.0003372643176
7.761282908e-05
1.888522574e-05
6.884001766e-06
3.441620937e-06
1.997328664e-06
1.211418486e-06
7.323993222e-07
4.306397207e-07
2.414092548e-07
1.262825405e-07
5.945446628e-08
2.34247288e-08
6.328630758e-09
2.258873631e-10
0
0
0
0
0
0
0
0
0
0
0
0
0
0
0
0
0
0
0
0
0
0
0
0
0
0
0
0
0
0
0.03269443979
0.02861404448
0.02492636868
0.02159140381
0.01859108927
0.01591097483
0.01352126269
0.01138032962
0.009460456855
0.007738565643
0.006195702953
0.004817458657
0.003594581578
0.002523600091
0.001608051276
0.0008443691321
0.0002983284119
6.71154088e-05
1.692122728e-05
6.495636588e-06
3.352749262e-06
1.973603095e-06
1.203647075e-06
7.283481842e-07
4.273134311e-07
2.388214088e-07
1.242194363e-07
5.786235184e-08
2.231522474e-08
5.712714209e-09
2.909352391e-11
0
0
0
0
0
0
0
0
0
0
0
0
0
0
0
0
0
0
0
0
0
0
0
0
0
0
0
0
0
0.03269768949
0.02907963715
0.02570571137
0.02259861961
0.01974753686
0.01713247624
0.01474467571
0.01258033215
0.01062070157
0.008845794454
0.007239429958
0.005789313767
0.004487428895
0.003330046062
0.002317943096
0.001457308386
0.0007474263632
0.0002538940669
5.646183505e-05
1.497598129e-05
6.067211802e-06
3.225010333e-06
1.921690274e-06
1.176817309e-06
7.119868739e-07
4.170645329e-07
2.321370712e-07
1.197733497e-07
5.493630474e-08
2.053549922e-08
4.87901207e-09
0
0
0
0
0
0
0
0
0
0
0
0
0
0
0
0
0
0
0
0
0
0
0
0
0
0
0
0
0
0.03229169243
0.02911396208
0.02608029694
0.02322284866
0.02055438879
0.01807329867
0.01576714607
0.01363169502
0.01166291746
0.009862066828
0.008215548618
0.006714334092
0.005352881052
0.004128721104
0.003042036919
0.002095947567
0.001296624575
0.0006434281738
0.0002057645069
4.556289057e-05
1.294203839e-05
5.565588528e-06
3.050335547e-06
1.838387564e-06
1.128809525e-06
6.8283077e-07
3.987052491e-07
2.203975914e-07
1.122735088e-07
5.027594351e-08
1.789149023e-08
3.744793811e-09
0
0
0
0
0
0
0
0
0
0
0
0
0
0
0
0
0
0
0
0
0
0
0
0
0
0
0
0
0.03166212388
0.02887866842
0.02616793954
0.02356632894
0.02109432512
0.01876083732
0.01656660433
0.01450488686
0.0125735501
0.01077063851
0.00910416354
0.007570548695
0.006167387731
0.004894047983
0.003751227708
0.002740680365
0.001865889929
0.00113106755
0.0005361985706
0.0001585041047
3.563880773e-05
1.100793014e-05
5.032095053e-06
2.838167822e-06
1.726612087e-06
1.062154204e-06
6.408778664e-07
3.718286699e-07
2.032200452e-07
1.015044536e-07
4.383005287e-08
1.442529664e-08
2.347690471e-09
0
0
0
0
0
0
0
0
0
0
0
0
0
0
0
0
0
0
0
0
0
0
0
0
0
0
0
0.0309210544
0.02848119534
0.02606412178
0.02370575929
0.02142949879
0.01924893486
0.01717066728
0.01519638055
0.01332381001
0.0115549597
0.009892248842
0.008342802943
0.006914398338
0.005608284501
0.004425896122
0.003368642713
0.002438070348
0.001637228891
0.0009684758199
0.000435129036
0.0001196028181
2.806064508e-05
9.415536319e-06
4.525225443e-06
2.606060014e-06
1.594401548e-06
9.790188699e-07
5.869925065e-07
3.369120153e-07
1.809858818e-07
8.78416096e-08
3.597772736e-08
1.047476609e-08
8.971715577e-10
0
0
0
0
0
0
0
0
0
0
0
0
0
0
0
0
0
0
0
0
0
0
0
0
0
0
0.03012500988
0.02797952043
0.02582129044
0.02368356776
0.02159019469
0.0195573516
0.01759557173
0.01571150813
0.01390861641
0.01218830676
0.01055632958
0.009018467477
0.007581218544
0.006258819599
0.00505324657
0.003965679186
0.00299672671
0.002147096137
0.001419431098
0.0008138411462
0.0003428741293
8.853520692e-05
2.188943687e-05
7.980926128e-06
4.018485805e-06
2.356119365e-06
1.445002256e-06
8.825455826e-07
5.235087408e-07
2.956035008e-07
1.548880888e-07
7.217799489e-08
2.742217284e-08
6.66542606e-09
0
0
0
0
0
0
0
0
0
0
0
0
0
0
0
0
0
0
0
0
0
0
0
0
0
0
0.02928929051
0.02739334563
0.02545949528
0.0235177522
0.02159135733
0.01969782982
0.01785023479
0.01605849994
0.01433042893
0.01267154635
0.01108585488
0.009580719928
0.008163146545
0.006839252442
0.005624999221
0.004521452909
0.00352869908
0.00264641236
0.001874833158
0.001216781726
0.0006703082198
0.0002599857189
6.321562138e-05
1.668125024e-05
6.644885053e-06
3.509653971e-06
2.090228866e-06
1.281275783e-06
7.756179581e-07
4.530859697e-07
2.50089005e-07
1.265640256e-07
5.563300387e-08
1.884027555e-08
3.324619188e-09
0
0
0
0
0
0
0
0
0
0
0
0
0
0
0
0
0
0
0
0
0
0
0
0
0
0.02840943385
0.02672489466
0.024985415
0.02321790119
0.0214445322
0.0196832923
0.01794872096
0.01625270451
0.01460520699
0.01301478429
0.01148819509
0.01003072113
0.008649443976
0.007350479389
0.006140722075
0.005033742178
0.004029482073
0.003127197259
0.002326138193
0.001626546874
0.001031008923
0.0005399833255
0.0001909429684
4.475431297e-05
1.282124976e-05
5.526462567e-06
3.028267955e-06
1.819853007e-06
1.110476239e-06
6.636753131e-07
3.798729454e-07
2.034125308e-07
9.818356055e-08
3.97149403e-08
1.117215834e-08
7.25230671e-10
0
0
0
0
0
0
0
0
0
0
0
0
0
0
0
0
0
0
0
0
0
0
0
0
0.02748351424
0.02598010025
0.0244112397
0.02280096913
0.02117010417
0.0195364245
0.01791503797
0.01631880792
0.01475876627
0.0132443847
0.01178384777
0.01038374054
0.009049629413
0.007787767494
0.006602629359
0.00550294893
0.004497275381
0.003584981359
0.002765211265
0.002037504205
0.001402674772
0.0008643104454
0.0004243551569
0.0001337030444
3.12910368e-05
9.917811968e-06
4.589931893e-06
2.586927945e-06
1.559108716e-06
9.420755697e-07
5.52924826e-07
3.080888898e-07
1.585278673e-07
7.179142369e-08
2.58049982e-08
5.422606441e-09
0
0
0
0
0
0
0
0
0
0
0
0
0
0
0
0
0
0
0
0
0
0
0
0
0.0265244234
0.02517894821
0.02376252529
0.02229653058
0.0208001725
0.01929044729
0.01778224933
0.01628855571
0.01482063634
0.01338826794
0.0119998651
0.01066260942
0.009382011691
0.008163059357
0.007011157341
0.00592984298
0.004930832832
0.004016575042
0.003186371479
0.002439755509
0.001777138434
0.001200804863
0.0007150729834
0.0003246661326
9.092939701e-05
2.214347316e-05
7.777003785e-06
3.814178027e-06
2.189504543e-06
1.314286261e-06
7.817639232e-07
4.478685494e-07
2.411068712e-07
1.177964307e-07
4.885220294e-08
1.457815403e-08
1.469181352e-09
0
0
0
0
0
0
0
0
0
0
0
0
0
0
0
0
0
0
0
0
0
0
0
0.02555986159
0.02435411559
0.02307543661
0.02174264007
0.02037310826
0.01898261478
0.01758528279
0.01619363114
0.01481866476
0.01346999787
0.01215595399
0.01088370234
0.009659409517
0.00848786312
0.007373305734
0.00631974088
0.005333163574
0.004422813366
0.003588510958
0.002830112122
0.002147919358
0.001543362792
0.0010201188
0.000581121873
0.0002407528337
6.183064169e-05
1.604678906e-05
6.174469487e-06
3.166554963e-06
1.834729932e-06
1.089918808e-06
6.34623736e-07
3.526589327e-07
1.818049277e-07
8.301259776e-08
3.043611787e-08
6.759074655e-09
0
0
0
0
0
0
0
0
0
0
0
0
0
0
0
0
0
0
0
0
0
0
0
0.02462189421
0.02354017385
0.02238583058
0.02117521482
0.01992378066
0.01864584659
0.0173544696
0.01606140458
0.01477712094
0.01351084953
0.01227066434
0.01106355071
0.009895467758
0.008771392972
0.007695679151
0.006672587119
0.005705304919
0.004803541097
0.00397034714
0.00320595816
0.002510844824
0.001886119609
0.001334006252
0.0008590928608
0.0004629143247
0.0001716149788
4.120531641e-05
1.162917584e-05
4.899367678e-06
2.613037308e-06
1.519036342e-06
8.886829258e-07
5.040607626e-07
2.699617398e-07
1.31827682e-07
5.49588496e-08
1.667063753e-08
1.849958587e-09
0
0
0
0
0
0
0
0
0
0
0
0
0
0
0
0
0
0
0
0
0
0
0.02373628426
0.02276395376
0.02172072541
0.02062063186
0.01947721313
0.01830325273
0.01711060794
0.01591011788
0.01471157125
0.0135237133
0.01235428848
0.01121010093
0.01009709807
0.00902048229
0.00798451824
0.006992961065
0.006049506109
0.005160010982
0.004332007609
0.003566264599
0.002863546515
0.002224863849
0.00165183353
0.0011469714
0.0007145285155
0.0003583065328
0.0001173811998
2.771663948e-05
8.678563709e-06
3.93292685e-06
2.149162569e-06
1.243009749e-06
7.127087225e-07
3.920157252e-07
2.009240923e-07
9.162617121e-08
3.373285569e-08
7.610122714e-09
0
0
0
0
0
0
0
0
0
0
0
0
0
0
0
0
0
0
0
0
0
0
0.02291697291
0.02204022136
0.02109511599
0.02009358928
0.019047384
0.01796779126
0.01686546354
0.01575029463
0.01463135539