/*--------------------------------*- C++ -*----------------------------------*\
  =========                 |
  \\      /  F ield         | OpenFOAM: The Open Source CFD Toolbox
   \\    /   O peration     | Website:  https://openfoam.org
    \\  /    A nd           | Version:  10
     \\/     M anipulation  |
\*---------------------------------------------------------------------------*/
FoamFile
{
    format      ascii;
    class       volScalarField;
    location    "0.02499901733";
    object      CH_0;
}
// * * * * * * * * * * * * * * * * * * * * * * * * * * * * * * * * * * * * * //

dimensions      [0 0 0 0 0 0 0];

internalField   nonuniform List<scalar> 
5170
(
0
0
0
0
0
0
0
0
0
0
0
0
0
0
0
0
0
0
0
0
0
0
0
0
0
0
0
0
0
0
0
0
0
0
0
0
0
0
0
0
0
0
0
0
0
0
0
0
0
0
0
0
0
0
0
0
0
0
0
0
0
0
0
0
0
0
0
0
0
0
0
0
0
0
0
0
0
0
0
0
0
0
0
0
0
0
0
0
0
0
0
0
0
0
0
0
0
0
0
0
6.685101825e-16
1.151794352e-15
0
0
0
3.094934917e-15
2.212264053e-15
0
0
6.386920232e-16
3.697376731e-16
9.075301988e-16
0
0
0
2.129307762e-16
2.924733267e-16
0
1.741503468e-17
2.797945864e-18
0
1.512286368e-17
1.153074681e-18
9.320436057e-18
0
0
0
0
1.30506057e-15
0
1.125800948e-14
0
0
7.674608208e-14
1.656538864e-13
5.554992565e-12
1.470646394e-13
1.781415921e-15
0
3.10507725e-11
3.391016508e-11
2.20280292e-12
2.90600297e-13
2.028515836e-11
6.230996646e-13
4.955466993e-12
2.584145305e-11
2.309766458e-11
9.941232435e-12
2.292272289e-13
4.842446502e-13
5.441337121e-12
5.454616183e-12
0
4.44283642e-13
3.623868094e-13
0
0
0
1.286930418e-13
1.290770137e-13
1.19736658e-13
0
1.427583508e-13
9.301717179e-13
6.871278602e-13
1.486661188e-13
4.683364508e-14
3.786734683e-13
9.734350192e-13
1.033548563e-12
4.202886288e-13
3.369207227e-13
7.476471746e-13
8.949586842e-13
9.594188172e-13
7.915413281e-13
7.367163968e-13
9.136182322e-13
8.275652146e-13
7.355874484e-13
8.786964206e-13
8.727431358e-13
8.509232314e-13
7.557862775e-13
6.004110204e-13
7.5897809e-13
7.766556639e-13
7.171354822e-13
6.737762524e-13
1.47350706e-12
9.15334997e-13
7.047595586e-13
6.287000882e-13
5.873632158e-13
1.035001417e-10
3.285111046e-11
4.232314933e-12
1.274413341e-12
6.012140603e-14
0
0
0
0
2.589946506e-13
0
0
0
2.420377001e-14
1.482007213e-12
0
0
2.759071988e-17
1.129350736e-13
2.538853464e-12
0
1.706852479e-14
3.76090963e-13
7.37340434e-12
1.52127327e-10
1.191444839e-16
6.527537192e-14
7.650060751e-13
1.239156772e-11
1.753567169e-10
6.590958319e-15
1.209763021e-13
7.742959804e-13
1.230450019e-11
1.265400142e-10
1.812954716e-14
1.616314493e-13
6.202922672e-13
7.150450599e-12
4.845974533e-11
2.63992311e-14
1.201574429e-13
5.548042857e-13
5.818103385e-12
4.326742283e-11
1.393478432e-14
5.275915554e-15
9.689561172e-13
1.052568572e-11
8.35104415e-11
1.823404331e-14
9.891321955e-14
1.530242254e-12
1.408186674e-11
9.510145299e-11
4.889793565e-14
2.314768593e-13
1.780686298e-12
1.329487244e-11
7.59075669e-11
3.192265763e-14
1.889738633e-13
1.380552903e-12
7.982962916e-12
3.497616068e-11
0
2.118789091e-13
1.554792726e-12
9.494499438e-12
5.067698391e-11
5.394815101e-14
3.792612341e-13
2.570895113e-12
1.503663767e-11
7.654515626e-11
1.521101815e-13
7.120952542e-13
2.922098496e-12
1.44446882e-11
6.302621879e-11
0
5.161688086e-13
2.170512236e-12
8.714894757e-12
2.911233613e-11
1.928800657e-13
6.61351154e-13
2.666216036e-12
1.058224098e-11
3.916414451e-11
6.305163541e-13
1.695366803e-12
6.50946299e-12
2.710813279e-11
1.029239212e-10
1.535022994e-12
3.900028455e-12
1.434783391e-11
5.424379438e-11
1.920020822e-10
2.158074574e-12
4.804647499e-12
1.523857392e-11
5.011512135e-11
1.559070453e-10
2.190166502e-12
3.968467575e-12
9.837263136e-12
2.584220746e-11
6.641388912e-11
1.426218225e-12
2.107620306e-12
4.058213614e-12
8.479693044e-12
1.791549337e-11
5.355186326e-13
7.376784258e-13
1.16166655e-12
2.017902166e-12
3.594000651e-12
1.403470614e-13
1.745746505e-13
2.483999042e-13
3.77443984e-13
5.762524481e-13
2.520309623e-14
3.234216313e-14
4.560317069e-14
5.916933396e-14
8.54886684e-14
3.669861827e-15
4.481784843e-15
5.83029122e-15
7.355855505e-15
9.40439593e-15
4.931226805e-16
5.732068571e-16
6.773309909e-16
8.54956898e-16
1.02893075e-15
5.405100122e-17
6.236342482e-17
7.446414896e-17
8.729522321e-17
9.522295374e-17
3.948481853e-18
4.42530825e-18
5.178481412e-18
6.955319239e-18
8.146755905e-18
0
0
0
0
0
0
0
0
0
0
0
0
0
0
0
0
0
0
0
0
0
0
0
0
2.408004774e-25
0
0
0
0
2.21178858e-26
0
0
0
0
5.743454109e-28
0
0
0
0
2.056257104e-29
2.503855009e-30
2.911509952e-30
6.001663394e-30
1.099514748e-29
3.358448298e-29
3.461460749e-29
3.588712625e-29
3.835701312e-29
3.477456391e-29
2.463180996e-29
7.033149085e-29
4.533344351e-29
2.701807757e-29
2.352112951e-29
4.474346868e-29
1.076217197e-28
1.361004833e-28
1.126169362e-28
8.09090849e-29
6.375422536e-29
6.522610524e-29
6.617575226e-29
6.574797092e-29
6.444497656e-29
6.4028764e-29
4.909190684e-30
5.131197064e-30
5.083223048e-30
5.307091575e-30
7.274073785e-30
0
0
0
0
0
0
0
0
0
0
3.977025139e-29
4.030917657e-29
4.312643734e-29
4.623903896e-29
7.199665815e-29
7.913701398e-29
4.391876587e-29
4.412007227e-29
4.285235578e-29
4.113243928e-29
1.070076249e-29
1.056493666e-29
1.055748887e-29
1.023385072e-29
9.210838978e-30
8.522106939e-30
8.573789583e-30
8.567463762e-30
8.498500485e-30
7.747135477e-30
0
0
0
0
0
1.314938435e-29
1.316697559e-29
1.332110888e-29
1.371562163e-29
1.271345958e-29
3.306941973e-29
3.304647572e-29
3.319880992e-29
3.414842718e-29
3.603098109e-29
3.470441779e-29
3.442980484e-29
3.396996151e-29
3.39987792e-29
3.544532518e-29
3.44821072e-29
3.324382183e-29
2.670601674e-29
4.11265085e-30
5.443257888e-30
0
0
0
0
0
0
0
0
0
2.34692944e-30
8.696903393e-30
8.158072453e-30
7.064943863e-30
5.348929665e-30
4.429807083e-30
4.117390648e-30
3.953481413e-30
3.702638933e-30
3.292878993e-30
3.908041904e-30
5.659049277e-30
5.923970604e-30
7.104646091e-30
1.091978576e-29
2.339113444e-29
2.352145664e-28
2.408035573e-28
2.512866919e-28
2.647946003e-28
2.755342356e-28
2.29316889e-28
2.29437375e-28
2.27806186e-28
2.233740019e-28
2.117418171e-28
2.19775568e-28
2.204146742e-28
2.20773827e-28
2.168723794e-28
1.990949146e-28
8.163718376e-30
7.240907712e-30
5.489738255e-30
3.876544142e-30
6.533958528e-30
0
0
0
0
2.373640357e-30
1.198987149e-29
8.573977522e-30
5.812921172e-30
7.38446746e-30
3.275766967e-29
6.541731263e-29
1.043236474e-28
2.295936399e-28
4.384198051e-28
6.30283361e-28
7.114815627e-28
7.097825701e-28
7.052192298e-28
6.923322191e-28
6.890072092e-28
1.057277947e-27
1.17034611e-27
1.402213568e-27
1.695947066e-27
1.97931614e-27
1.442501154e-27
1.535141666e-27
1.740676174e-27
2.030130199e-27
2.346314399e-27
1.226103031e-27
1.231923429e-27
1.232225147e-27
1.198008646e-27
1.062789826e-27
2.262090226e-12
1.637104515e-11
2.040500403e-11
1.301947369e-09
1.088725381e-09
5.919317066e-10
1.472873447e-10
1.941976317e-10
3.815069331e-10
3.68215104e-10
2.610279032e-10
9.083830941e-11
1.815601889e-10
2.547778577e-10
1.831318431e-10
6.835903906e-11
1.017346666e-10
2.753206636e-10
4.693561976e-10
3.448432717e-10
1.303908532e-10
3.107213133e-11
5.553572419e-12
8.333675349e-13
1.095815332e-13
1.155248155e-14
1.230043764e-15
1.044348734e-16
9.062616387e-18
0
0
0
0
8.178208658e-25
4.082037892e-26
9.495104365e-28
3.660869401e-29
5.540636826e-29
2.080907958e-29
7.536261041e-29
5.950508357e-29
6.824093233e-29
7.721916381e-30
0
0
8.921887659e-29
3.432305451e-29
8.315561665e-30
5.863517712e-30
6.9445257e-30
1.261768593e-29
3.706679102e-29
3.597609268e-29
7.519201956e-30
0
1.357940292e-29
7.898058503e-30
7.948747181e-30
4.454274717e-29
2.799914919e-28
1.9980246e-28
1.625936838e-28
1.127910256e-29
4.902924962e-29
7.107588243e-29
5.137495283e-28
7.62341507e-28
2.1532474e-27
2.554001985e-27
8.602527705e-28
9.398861696e-12
7.867914936e-12
1.343417354e-12
7.792881478e-12
1.701647414e-13
9.08168228e-11
1.501666125e-09
9.630131423e-11
4.016265114e-12
1.780714693e-13
9.022904078e-11
8.26186479e-10
4.153443847e-09
4.259655352e-10
1.545538325e-11
6.641170762e-09
9.319084389e-08
1.154402728e-06
8.616603218e-08
4.005456404e-09
4.538142785e-09
3.98467775e-08
2.922681045e-07
3.487359313e-08
2.620088458e-09
1.852520166e-09
1.081384219e-08
4.825936952e-08
8.69733372e-09
9.261805172e-10
3.522483815e-10
2.594152007e-09
8.648822898e-09
4.778706834e-09
8.893792273e-10
7.353782473e-10
8.361452043e-09
7.073659387e-08
5.702721153e-07
7.063416303e-08
1.357986253e-09
1.193822175e-08
8.887468667e-08
6.157879661e-07
9.155218958e-08
1.146299156e-09
7.77780779e-09
4.580356973e-08
2.495156808e-07
4.620872388e-08
7.69067325e-10
3.751732925e-09
1.915950711e-08
9.110298785e-08
2.014234251e-08
2.074255585e-10
1.988730117e-09
1.044034336e-08
5.164564792e-08
1.325643443e-07
5.703003291e-10
4.088562179e-09
2.146314687e-08
1.268061425e-07
6.956641889e-07
7.353115717e-10
4.681050452e-09
1.921394822e-08
9.724236849e-08
4.631066099e-07
4.85332862e-10
2.561182827e-09
1.27733763e-08
5.917893624e-08
2.565471244e-07
1.564784848e-10
5.332303883e-10
7.955431486e-09
3.557176766e-08
1.467838654e-07
2.377925236e-10
1.079371506e-09
6.996403585e-09
3.07488657e-08
1.279829685e-07
6.700782048e-10
3.39538582e-09
1.60787285e-08
7.162207429e-08
3.047504729e-07
1.019669989e-09
3.856463512e-09
1.23828055e-08
3.667619679e-08
1.13131633e-07
7.27138154e-10
2.260661691e-09
5.359737362e-09
9.667566179e-09
1.331685843e-08
2.658605831e-10
7.203421701e-10
1.464812084e-09
2.128448879e-09
2.092850876e-09
5.968863926e-11
1.422908335e-10
2.601904691e-10
3.423723549e-10
2.989134476e-10
9.836890417e-12
2.056985085e-11
3.407163032e-11
4.197949168e-11
3.514942562e-11
1.339870355e-12
2.432813087e-12
3.64471106e-12
4.233491854e-12
3.473344254e-12
1.611195512e-13
2.550367623e-13
3.434352118e-13
3.739496899e-13
3.011395972e-13
1.539423304e-14
2.055675826e-14
2.385280469e-14
2.385697077e-14
1.898584972e-14
1.590215901e-15
1.970635354e-15
2.098395735e-15
1.924664782e-15
1.571550229e-15
1.401419696e-16
1.75118428e-16
1.650267635e-16
2.688194145e-17
1.039490741e-16
1.324969024e-17
2.39533523e-17
1.868899697e-17
6.792499729e-18
0
0
0
8.813477796e-19
6.983905974e-19
0
0
0
4.706488927e-20
4.635071501e-20
0
0
0
1.818399084e-21
2.632160792e-21
2.995058387e-22
0
0
1.30826734e-23
0
0
1.076601423e-24
0
0
0
0
6.675074294e-26
0
0
0
0
1.903935433e-27
3.804558872e-30
0
0
0
6.0961252e-29
6.625764981e-29
5.459104825e-30
2.010028058e-28
2.270343608e-28
8.912158646e-29
1.031103029e-28
2.296089372e-28
2.941166861e-28
4.310013426e-28
0
2.946888573e-29
1.077090754e-28
1.578649586e-28
2.647413751e-28
1.217855453e-28
1.017914598e-28
1.353712208e-28
2.507340001e-28
4.39508151e-28
7.214191932e-29
7.965147794e-29
8.889560236e-29
5.421643896e-29
4.422249705e-29
7.677204253e-29
3.082742277e-29
1.454602549e-29
2.730863151e-30
0
8.31456767e-30
2.642903015e-30
0
0
0
0
0
0
0
5.80614726e-29
0
4.797604853e-29
6.615131962e-29
4.502361733e-29
0
1.197244892e-28
9.145574834e-29
1.71050267e-29
0
3.268105082e-29
7.296320081e-30
0
3.64947688e-29
1.996062239e-29
4.098579103e-30
9.084325531e-30
8.737082347e-30
8.86434451e-30
1.728228803e-30
0
5.085444015e-30
0
0
4.836842629e-30
1.656165014e-29
1.072878155e-29
1.455500559e-29
1.806026891e-29
2.313763366e-29
4.89303697e-29
1.794603919e-29
3.324804442e-29
3.895965297e-29
4.096799388e-29
4.2734934e-29
3.823121663e-29
4.332420925e-29
5.450498943e-29
8.001078812e-29
1.162875845e-28
3.683833891e-29
3.77295349e-29
3.275844241e-29
5.907501235e-31
1.616551908e-29
0
3.867230494e-30
0
0
0
0
0
0
0
2.775932691e-30
1.726353445e-29
1.691454679e-29
7.482951796e-30
8.064825459e-30
8.666804596e-30
5.980947486e-30
7.540969062e-30
7.908894769e-30
8.663339939e-30
1.198493655e-29
5.640070676e-30
8.984798705e-30
1.465905887e-29
4.134565376e-29
2.201752626e-28
7.651593641e-29
2.227313636e-28
2.423565177e-28
2.447514769e-28
2.469063149e-28
3.377990611e-28
4.151085084e-28
5.189057463e-28
6.277903845e-28
7.544770261e-28
2.319977489e-28
2.45346345e-28
2.508011734e-28
2.431175847e-28
9.866792044e-29
9.455481161e-29
5.357877582e-29
7.226632237e-29
1.797780074e-28
6.135746568e-28
2.468607143e-29
2.427146238e-28
0
0
3.113915462e-29
0
6.329553534e-30
1.681804957e-29
2.433932665e-29
2.994104236e-29
1.039927802e-29
2.083035007e-29
6.23942053e-29
2.309538276e-28
8.116148366e-28
1.46277084e-28
2.108691009e-28
5.838295209e-28
7.874175989e-28
8.69665582e-28
7.236788015e-28
7.368824137e-28
7.200781297e-28
8.197388908e-28
1.100041349e-27
2.179474456e-27
2.020926148e-27
1.718966858e-27
1.443985178e-27
1.375403226e-27
2.62051669e-27
2.505423489e-27
2.79953378e-27
1.844995997e-27
1.297378778e-27
6.202830378e-28
4.855838165e-28
4.503642429e-28
4.940787834e-28
4.35633565e-28
4.134525022e-16
0
0
0
0
0
0
0
0
0
0
0
0
0
0
0
0
0
0
0
0
0
0
0
0
0
0
0
0
0
0
0
0
0
0
0
0
0
0
0
0
0
0
0
0
0
0
0
0
0
0
0
0
0
0
0
0
0
0
0
6.140521122e-16
0
0
0
0
0
0
0
0
0
0
0
0
0
0
0
0
0
0
0
0
0
0
0
0
0
0
0
0
0
0
0
0
0
0
0
0
0
0
0
0
0
0
0
0
0
0
0
0
0
0
0
0
0
0
0
0
0
0
0
9.983744169e-14
0
0
0
0
0
0
0
0
0
0
0
0
0
0
0
0
0
0
0
0
0
0
0
0
0
0
0
0
0
0
0
0
0
0
0
0
0
0
0
0
0
0
0
0
0
0
0
0
0
0
0
0
0
0
0
0
0
0
0
5.748214437e-11
2.038383101e-13
1.789671737e-14
3.326411356e-16
0
0
0
0
0
0
0
0
0
0
0
0
0
0
0
0
0
0
0
0
0
0
0
0
0
0
0
0
0
0
0
0
0
0
0
0
0
0
0
0
0
0
0
0
0
0
0
0
0
0
0
0
0
0
0
0
7.33513043e-11
5.899334407e-13
4.693848582e-15
1.755157759e-15
0
0
0
0
0
0
0
0
0
0
0
0
0
0
0
0
0
0
0
0
0
0
0
0
0
0
0
0
0
0
0
0
0
0
0
0
0
0
0
0
0
0
0
0
0
0
0
0
0
0
0
0
0
0
0
0
4.756564022e-11
9.155312993e-13
5.663021712e-15
2.006267909e-15
0
0
0
0
0
0
0
0
0
0
0
0
0
0
0
0
0
0
0
0
0
0
0
0
0
0
0
0
0
0
0
0
0
0
0
0
0
0
0
0
0
0
0
0
0
0
0
0
0
0
0
0
0
0
0
0
8.940945639e-11
3.411699537e-12
5.263363516e-14
2.963029378e-16
0
0
0
0
0
0
0
0
0
0
0
0
0
0
0
0
0
0
0
0
0
0
0
0
0
0
0
0
0
0
0
0
0
0
0
0
0
0
0
0
0
0
0
0
0
0
0
0
0
0
0
0
0
0
0
0
5.140941971e-09
2.339912848e-10
5.938640175e-12
6.488687593e-14
0
0
0
0
0
0
0
0
0
0
0
0
0
0
0
0
0
0
0
0
0
0
0
0
0
0
0
0
0
0
0
0
0
0
0
0
0
0
0
0
0
0
0
0
0
0
0
0
0
0
0
0
0
0
0
0
8.291123061e-09
4.927185248e-10
1.914793347e-11
4.367995057e-13
4.627652332e-15
2.06646954e-15
8.88770659e-17
0
0
0
0
0
0
0
0
0
0
0
0
0
0
0
0
0
0
0
0
0
0
0
0
0
0
0
0
0
0
0
0
0
0
0
0
0
0
0
0
0
0
0
0
0
0
0
0
0
0
0
0
0
5.258553763e-09
4.043333306e-10
2.112760229e-11
7.226985725e-13
1.488601238e-14
1.572456106e-16
1.54652913e-16
0
0
0
0
0
0
0
0
0
0
0
0
0
0
0
0
0
0
0
0
0
0
0
0
0
0
0
0
0
0
0
0
0
0
0
0
0
0
0
0
0
0
0
0
0
0
0
0
0
0
0
0
0
2.816710212e-09
2.782402153e-10
2.111651093e-11
9.608869915e-13
2.743616007e-14
4.08699417e-16
0
0
0
0
0
0
0
0
0
0
0
0
0
0
0
0
0
0
0
0
0
0
0
0
0
0
0
0
0
0
0
0
0
0
0
0
0
0
0
0
0
0
0
0
0
0
0
0
0
0
0
0
0
0
1.776129338e-08
1.817392756e-09
1.545330336e-10
9.066345354e-12
3.611892283e-13
8.319031859e-15
9.059314206e-17
0
0
0
0
0
0
0
0
0
0
0
0
0
0
0
0
0
0
0
0
0
0
0
0
0
0
0
0
0
0
0
0
0
0
0
0
0
0
0
0
0
0
0
0
0
0
0
0
0
0
0
0
0
9.834287014e-08
1.099549803e-08
1.008677478e-09
7.127618748e-11
3.44933494e-12
1.03003757e-13
1.601321776e-15
7.19758114e-16
0
0
0
0
0
0
0
0
0
0
0
0
0
0
0
0
0
0
0
0
0
0
0
0
0
0
0
0
0
0
0
0
0
0
0
0
0
0
0
0
0
0
0
0
0
0
0
0
0
0
0
0
7.90239944e-08
1.0591995e-08
1.161406211e-09
1.115684305e-10
6.644515667e-12
2.519314956e-13
5.416535148e-15
1.338582949e-15
4.038154372e-19
0
0
0
0
0
0
0
0
0
0
0
0
0
0
0
0
0
0
0
0
0
0
0
0
0
0
0
0
0
0
0
0
0
0
0
0
0
0
0
0
0
0
0
0
0
0
0
0
0
0
0
4.976109608e-08
7.714602179e-09
9.90653764e-10
1.47565206e-10
1.012080497e-11
4.42485403e-13
1.215017125e-14
2.222450011e-15
4.679154375e-17
0
0
0
0
0
0
0
0
0
0
0
0
0
0
0
0
0
0
0
0
0
0
0
0
0
0
0
0
0
0
0
0
0
0
0
0
0
0
0
0
0
0
0
0
0
0
0
0
0
0
0
3.126661373e-08
5.418028309e-09
7.89165168e-10
1.920334359e-10
1.39987953e-11
6.602222003e-13
2.187755805e-14
8.689775239e-16
7.371434974e-17
0
0
0
0
0
0
0
0
0
0
0
0
0
0
0
0
0
0
0
0
0
0
0
0
0
0
0
0
0
0
0
0
0
0
0
0
0
0
0
0
0
0
0
0
0
0
0
0
0
0
0
2.827962993e-08
5.160370195e-09
7.773257109e-10
1.431019834e-10
9.445941746e-12
4.369564478e-13
1.595099659e-14
4.270139371e-16
7.682110145e-18
0
0
0
0
0
0
0
0
0
0
0
0
0
0
0
0
0
0
0
0
0
0
0
0
0
0
0
0
0
0
0
0
0
0
0
0
0
0
0
0
0
0
0
0
0
0
0
0
0
0
0
6.37448455e-08
1.086728205e-08
1.614850048e-09
1.477496273e-10
9.528607637e-12
4.902032126e-13
2.099419466e-14
4.163807892e-16
0
0
0
0
0
0
0
0
0
0
0
0
0
0
0
0
0
0
0
0
0
0
0
0
0
0
0
0
0
0
0
0
0
0
0
0
0
0
0
0
0
0
0
0
0
0
0
0
0
0
0
0
2.619189376e-08
5.197797537e-09
7.978897711e-10
8.642090272e-11
6.732996164e-12
3.929195188e-13
1.763285426e-14
2.132500026e-15
1.18442781e-16
0
0
0
0
0
0
0
0
0
0
0
0
0
0
0
0
0
0
0
0
0
0
0
0
0
0
0
0
0
0
0
0
0
0
0
0
0
0
0
0
0
0
0
0
0
0
0
0
0
0
0
5.406295299e-09
1.37695755e-09
2.36010163e-10
2.756648797e-11
2.313859263e-12
1.480458697e-13
9.696780279e-15
1.00494605e-15
9.499297931e-17
0
0
0
0
0
0
0
0
0
0
0
0
0
0
0
0
0
0
0
0
0
0
0
0
0
0
0
0
0
0
0
0
0
0
0
0
0
0
0
0
0
0
0
0
0
0
0
0
0
0
0
9.876056381e-10
2.701728126e-10
4.794162638e-11
5.900697085e-12
5.377257585e-13
3.826961987e-14
1.688446135e-16
1.029086153e-16
1.521027433e-17
1.982642463e-20
0
0
0
0
0
0
0
0
0
0
0
0
0
0
0
0
0
0
0
0
0
0
0
0
0
0
0
0
0
0
0
0
0
0
0
0
0
0
0
0
0
0
0
0
0
0
0
0
0
0
1.452911038e-10
4.049258676e-11
7.450578356e-12
9.790853247e-13
9.820295469e-14
7.946597107e-15
4.947173483e-16
2.483032506e-17
0
0
0
0
0
0
0
0
0
0
0
0
0
0
0
0
0
0
0
0
0
0
0
0
0
0
0
0
0
0
0
0
0
0
0
0
0
0
0
0
0
0
0
0
0
0
0
0
0
0
0
0
1.734668309e-11
4.955768913e-12
9.571900824e-13
1.361294587e-13
1.52723664e-14
1.426651262e-15
1.879557129e-16
1.158947741e-17
0
0
0
0
0
0
0
0
0
0
0
0
0
0
0
0
0
0
0
0
0
0
0
0
0
0
0
0
0
0
0
0
0
0
0
0
0
0
0
0
0
0
0
0
0
0
0
0
0
0
0
0
1.754356651e-12
5.235750355e-13
1.077932935e-13
1.682327211e-14
2.183205499e-15
2.471437495e-16
2.497657794e-17
1.985456454e-18
7.65915988e-20
0
0
0
0
0
0
0
0
0
0
0
0
0
0
0
0
0
0
0
0
0
0
0
0
0
0
0
0
0
0
0
0
0
0
0
0
0
0
0
0
0
0
0
0
0
0
0
0
0
0
0
1.559723625e-13
4.871726329e-14
8.658368308e-15
1.53106137e-15
2.306401745e-16
2.501301906e-17
2.85447024e-18
0
0
0
0
0
0
0
0
0
0
0
0
0
0
0
0
0
0
0
0
0
0
0
0
0
0
0
0
0
0
0
0
0
0
0
0
0
0
0
0
0
0
0
0
0
0
0
0
0
0
0
0
0
9.994047824e-15
3.327569998e-15
8.339803599e-16
1.931256515e-16
2.996072533e-17
3.204630304e-18
6.070860579e-20
0
0
0
0
0
0
0
0
0
0
0
0
0
0
0
0
0
0
0
0
0
0
0
0
0
0
0
0
0
0
0
0
0
0
0
0
0
0
0
0
0
0
0
0
0
0
0
0
0
0
0
0
0
7.839351332e-16
2.80476013e-16
9.570955901e-17
4.682448548e-18
8.229827221e-19
0
0
0
0
0
0
0
0
0
0
0
0
0
0
0
0
0
0
0
0
0
0
0
0
0
0
0
0
0
0
0
0
0
0
0
0
0
0
0
0
0
0
0
0
0
0
0
0
0
0
0
0
0
0
0
7.617860079e-17
2.616562899e-17
0
0
0
0
0
0
0
0
0
0
0
0
0
0
0
0
0
0
0
0
0
0
0
0
0
0
0
0
0
0
0
0
0
0
0
0
0
0
0
0
0
0
0
0
0
0
0
0
0
0
0
0
0
0
0
0
0
0
3.183680343e-18
4.28573829e-19
0
0
0
0
0
0
0
0
0
0
0
0
0
0
0
0
0
0
0
0
0
0
0
0
0
0
0
0
0
0
0
0
0
0
0
0
0
0
0
0
0
0
0
0
0
0
0
0
0
0
0
0
0
0
0
0
0
0
1.475628505e-19
1.398244026e-20
0
0
0
0
0
0
0
0
0
0
0
0
0
0
0
0
0
0
0
0
0
0
0
0
0
0
0
0
0
0
0
0
0
0
0
0
0
0
0
0
0
0
0
0
0
0
0
0
0
0
0
0
0
0
0
0
0
0
5.968738758e-21
6.892969005e-22
0
0
0
0
0
0
0
0
0
0
0
0
0
0
0
0
0
0
0
0
0
0
0
0
0
0
0
0
0
0
0
0
0
0
0
0
0
0
0
0
0
0
0
0
0
0
0
0
0
0
0
0
0
0
0
0
0
0
1.94515541e-22
3.27734164e-23
0
0
0
0
0
0
0
0
0
0
0
0
0
0
0
0
0
0
0
0
0
0
0
0
0
0
0
0
0
0
0
0
0
0
0
0
0
0
0
0
0
0
0
0
0
0
0
0
0
0
0
0
0
0
0
0
0
0
0
3.626419174e-25
7.772802519e-27
0
0
0
0
0
0
0
0
0
0
0
0
0
0
0
0
0
0
0
0
0
0
0
0
0
0
0
0
0
0
0
0
0
0
0
0
0
0
0
0
0
0
0
0
0
0
0
0
0
0
0
0
0
0
0
0
0
0
0
0
0
2.718838301e-28
1.370709536e-27
9.249317022e-29
2.583152782e-29
5.789068875e-29
0
0
0
0
0
0
0
0
0
0
0
0
0
0
0
0
0
0
0
0
0
0
0
0
0
0
0
0
0
0
0
0
0
0
0
0
0
0
0
0
0
0
0
0
0
0
0
0
0
0
0
0
0
2.286290671e-28
1.017187986e-28
6.784900756e-28
1.265444229e-27
4.595415237e-28
2.431012756e-28
4.869605092e-28
1.216635284e-28
0
0
0
0
0
0
0
0
0
0
0
0
0
0
0
0
0
0
0
0
0
0
0
0
0
0
0
0
0
0
0
0
0
0
0
0
0
0
0
0
0
0
0
0
0
0
0
0
0
0
0
2.238400394e-28
6.87242959e-28
4.923506214e-28
5.336209123e-28
7.641630908e-28
8.024763702e-28
6.062353171e-28
8.736033104e-28
6.906732422e-28
0
0
0
0
0
0
0
0
0
0
0
0
0
0
0
0
0
0
0
0
0
0
0
0
0
0
0
0
0
0
0
0
0
0
0
0
0
0
0
0
0
0
0
0
0
0
0
0
0
0
5.864284322e-28
4.890708321e-28
3.069867396e-28
2.235178056e-28
2.739620602e-28
4.230973926e-28
5.072776838e-28
2.424082344e-28
4.693131764e-28
5.438226654e-28
0
0
0
0
0
0
0
0
0
0
0
0
0
0
0
0
0
0
0
0
0
0
0
0
0
0
0
0
0
0
0
0
0
0
0
0
0
0
0
0
0
0
0
0
0
0
0
0
0
0
7.158589021e-28
4.776550568e-28
2.152669171e-28
1.746914209e-28
1.392159293e-28
2.304732897e-28
3.087885411e-28
7.467532687e-29
3.82216999e-28
5.196685923e-28
9.313002902e-32
0
0
0
0
0
0
0
0
0
0
0
0
0
0
0
0
0
0
0
0
0
0
0
0
0
0
0
0
0
0
0
0
0
0
0
0
0
0
0
0
0
0
0
0
0
0
0
0
0
4.547037255e-28
1.671291699e-28
6.91022293e-29
6.513112166e-29
9.626926221e-29
7.604170208e-29
1.88647371e-28
2.561264287e-28
2.577259664e-28
3.721716696e-28
0
0
0
0
0
0
0
0
0
0
0
0
0
0
0
0
0
0
0
0
0
0
0
0
0
0
0
0
0
0
0
0
0
0
0
0
0
0
0
0
0
0
0
0
0
0
0
0
0
0
1.593427485e-28
4.809620312e-29
6.42660839e-29
0
6.773891773e-29
6.734273406e-29
1.408002505e-28
2.003067867e-28
1.736117731e-28
3.090633926e-28
0
0
0
0
0
0
0
0
0
0
0
0
0
0
0
0
0
0
0
0
0
0
0
0
0
0
0
0
0
0
0
0
0
0
0
0
0
0
0
0
0
0
0
0
0
0
0
0
0
0
0
0
3.671627635e-29
1.982452542e-29
0
3.376149222e-29
9.492272446e-29
1.517341104e-28
8.78275189e-29
2.782429546e-28
0
9.329464733e-29
0
0
0
0
0
0
0
0
0
0
0
0
0
0
0
0
0
0
0
0
0
0
0
0
0
0
0
0
0
0
0
0
0
0
0
0
0
0
0
0
0
0
0
0
0
0
0
0
0
5.685820133e-29
0
3.611575157e-29
0
9.538216122e-29
1.324357608e-28
1.788307588e-28
1.088189064e-28
2.963110189e-28
0
1.019411934e-28
0
0
0
0
0
0
0
0
0
0
0
0
0
0
0
0
0
0
0
0
0
0
0
0
0
0
0
0
0
0
0
0
0
0
0
0
0
0
0
0
0
0
0
0
0
0
0
0
4.230961749e-29
4.966860865e-29
3.465314682e-29
1.792172168e-29
4.902908606e-29
1.153845697e-28
3.671650216e-29
2.583691521e-28
1.328780714e-28
3.407763406e-28
4.918327058e-29
2.403099534e-28
0
5.847484948e-28
0
0
0
0
0
0
0
0
0
0
0
0
0
0
0
0
0
0
0
0
0
0
0
0
0
0
0
0
0
0
0
0
0
0
0
0
0
0
0
0
0
0
0
0
0
0
4.512891953e-29
3.022497398e-29
1.742715071e-29
0
6.129399521e-29
4.605670524e-29
4.243842673e-29
1.037935942e-28
1.640560962e-28
3.791884472e-28
4.55175537e-29
1.648817539e-28
5.342278178e-28
3.32819393e-28
0
0
0
0
0
0
0
0
0
0
0
0
0
0
0
0
0
0
0
0
0
0
0
0
0
0
0
0
0
0
0
0
0
0
0
0
0
0
0
0
0
0
0
0
0
0
3.072927971e-29
7.292586132e-30
0
1.349242894e-29
4.284416746e-29
7.392906705e-29
1.231502848e-28
5.418937496e-29
2.187475665e-28
2.198960815e-28
0
1.133096421e-28
7.246057669e-28
2.636194489e-28
0
0
0
0
0
0
0
0
0
0
0
0
0
0
0
0
0
0
0
0
0
0
0
0
0
0
0
0
0
0
0
0
0
0
0
0
0
0
0
0
0
0
0
0
0
0
1.019402901e-29
0
2.921701463e-30
4.76652683e-29
4.187623682e-29
4.956734327e-29
5.001003874e-29
2.602638654e-29
1.381409441e-28
0
0
9.987203252e-29
7.127832658e-28
5.055480356e-28
3.333184705e-28
0
0
0
0
0
0
0
0
0
0
0
0
0
0
0
0
0
0
0
0
0
0
0
0
0
0
0
0
0
0
0
0
0
0
0
0
0
0
0
0
0
0
0
0
0
0
2.534253141e-30
6.658667445e-29
8.939173461e-29
8.866001877e-29
8.063756863e-29
9.399880196e-30
4.181921363e-30
1.33113128e-28
0
0
9.95909015e-29
7.141417281e-28
5.432699199e-28
8.796848624e-28
1.439273322e-27
0
0
0
0
0
0
0
0
0
0
0
0
0
0
0
0
0
0
0
0
0
0
0
0
0
0
0
0
0
0
0
0
0
0
0
0
0
0
0
0
0
0
0
0
1.259459056e-29
4.829509284e-29
5.495924823e-29
4.023697439e-29
4.835233882e-29
3.757177078e-29
2.375298844e-29
6.343523273e-29
3.19443183e-28
7.688253806e-29
0
2.298074591e-28
4.912448432e-28
4.535265409e-28
9.016239581e-28
1.543441195e-27
8.380942672e-28
2.412429544e-28
0
0
0
0
0
0
0
0
0
0
0
0
0
0
0
0
0
0
0
0
0
0
0
0
0
0
0
0
0
0
0
0
0
0
0
0
0
0
0
0
0
0
2.401891749e-29
4.555400695e-29
4.741218411e-29
3.614289635e-29
1.840382941e-29
7.440469605e-30
3.689919192e-30
5.480085275e-30
2.314371763e-29
2.984807286e-28
2.48559412e-29
2.475923813e-28
4.593759914e-28
4.463704038e-28
9.040175719e-28
1.511324899e-27
1.022125067e-27
4.319357005e-28
2.704064143e-28
0
0
0
0
0
0
0
0
0
0
0
0
0
0
0
0
0
0
0
0
0
0
0
0
0
0
0
0
0
0
0
0
0
0
0
0
0
0
0
0
0
7.726109405e-29
8.963015481e-29
8.576476884e-29
2.704273255e-29
1.026100464e-29
1.279402963e-29
2.708810071e-29
2.023917663e-28
4.770327469e-29
0
0
8.809643911e-29
4.779982116e-28
6.351687128e-28
1.531312883e-27
1.203840745e-27
1.064585717e-27
7.488901275e-29
0
0
0
0
0
0
0
0
0
0
0
0
0
0
0
0
0
0
0
0
0
0
0
0
0
0
0
0
0
0
0
0
0
0
0
0
0
0
0
0
0
0
4.190964587e-29
2.92346281e-29
0
3.678144541e-30
5.26461981e-30
9.253578461e-30
1.037701407e-29
2.738995529e-29
3.47631043e-29
8.800288981e-30
1.788300271e-28
7.226520321e-28
5.479300597e-28
6.256505599e-28
1.524499632e-27
8.119403164e-28
0
0
0
0
0
0
0
0
0
0
0
0
0
0
0
0
0
0
0
0
0
0
0
0
0
0
0
0
0
0
0
0
0
0
0
0
0
0
0
0
0
0
0
0
1.047016757e-28
6.493240101e-29
2.62690458e-29
8.402232011e-30
6.928035452e-30
1.467158551e-29
5.585398573e-29
6.873091042e-31
0
0
1.886399604e-28
7.633077208e-28
5.193339282e-28
6.520818768e-28
1.549689543e-27
1.148678422e-27
7.06004264e-28
0
0
0
0
0
0
0
0
0
0
0
0
0
0
0
0
0
0
0
0
0
0
0
0
0
0
0
0
0
0
0
0
0
0
0
0
0
0
0
0
0
0
0
0
5.889757181e-30
5.824994758e-30
8.355957768e-30
1.26296944e-29
2.104280371e-29
9.371405878e-29
5.590863735e-29
0
5.128179211e-29
1.074543815e-28
4.796689903e-28
5.345998416e-28
6.551716106e-28
1.562455437e-27
1.230376084e-27
8.340659224e-28
0
0
0
0
0
0
0
0
0
0
0
0
0
0
0
0
0
0
0
0
0
0
0
0
0
0
0
0
0
0
0
0
0
0
0
0
0
0
0
0
0
0
0
0
7.542299685e-30
9.097345739e-30
1.209698365e-29
3.143181674e-29
2.166397258e-28
0
1.861758912e-30
0
7.301305316e-29
1.014183384e-27
5.595796375e-28
5.450764843e-28
6.52060094e-28
1.554225252e-27
1.214832221e-27
7.891210006e-28
0
0
0
0
0
0
0
0
0
0
0
0
0
0
0
0
0
0
0
0
0
0
0
0
0
0
0
0
0
0
0
0
0
0
0
0
0
0
0
0
0
0
0
8.405819954e-30
1.038438018e-29
1.331013189e-29
2.85671525e-29
2.276249036e-28
1.465672714e-28
3.388371328e-29
0
5.14539259e-29
2.212433449e-28
1.174237368e-27
6.181841926e-28
5.630736533e-28
6.40530342e-28
1.521684185e-27
1.234535919e-27
1.051388353e-27
0
0
0
0
0
0
0
0
0
0
0
0
0
0
0
0
0
0
0
0
0
0
0
0
0
0
0
0
0
0
0
0
0
0
0
0
0
0
0
0
0
0
0
9.799623815e-30
1.325396992e-29
3.351321816e-29
2.305247359e-28
2.198469701e-28
5.662466227e-30
0
0
2.407119726e-29
0
4.264055873e-28
6.227795588e-28
5.957379378e-28
5.681551913e-28
5.641734607e-28
9.88508144e-28
1.141281464e-27
9.038208095e-28
0
0
0
0
0
0
0
0
0
0
0
0
0
0
0
0
0
0
0
0
0
0
0
0
0
0
0
0
0
0
0
0
0
0
0
0
0
0
0
0
0
0
3.204907946e-29
2.281138026e-28
2.457383113e-28
2.366032113e-28
8.186593676e-29
3.169265646e-29
0
5.099013976e-29
2.314418133e-28
6.211049279e-28
7.34209759e-28
5.612513142e-28
5.565449138e-28
6.478066425e-28
2.434561912e-27
4.532026143e-27
6.615786356e-27
4.658217807e-27
0
0
0
0
0
0
0
0
0
0
0
0
0
0
0
0
0
0
0
0
0
0
0
0
0
0
0
0
0
0
0
0
0
0
0
0
0
0
0
0
0
0
2.540056391e-28
2.594291153e-28
2.43427294e-28
1.195089505e-28
1.974401787e-29
0
1.687075382e-29
5.570923908e-29
1.805464822e-28
1.502022575e-27
6.432621532e-28
5.857347844e-28
5.427168149e-28
1.094712965e-27
4.211344057e-27
6.895552473e-27
9.24388745e-27
6.980050053e-27
0
0
0
0
0
0
0
0
0
0
0
0
0
0
0
0
0
0
0
0
0
0
0
0
0
0
0
0
0
0
0
0
0
0
0
0
0
0
0
0
0
0
2.527846363e-28
2.376187752e-28
9.429230772e-29
1.902669091e-29
2.914076602e-28
3.257925906e-29
1.972626274e-28
7.790754106e-28
7.853231886e-28
1.212523932e-27
5.858150283e-28
5.705295228e-28
5.573558796e-28
5.464988241e-28
1.446853994e-27
3.064658434e-27
4.305284536e-27
3.209181988e-27
0
0
0
0
0
0
0
0
0
0
0
0
0
0
0
0
0
0
0
0
0
0
0
0
0
0
0
0
0
0
0
0
0
0
0
0
0
0
0
0
0
0
8.914376903e-28
7.954094352e-28
7.840277503e-28
7.551715359e-28
1.198212621e-27
1.945535129e-27
3.03237272e-27
4.400183269e-27
5.010002637e-27
5.321586756e-27
5.148494744e-27
5.044382096e-27
4.820107837e-27
4.498094014e-27
4.762423075e-27
6.146113782e-27
5.487063005e-27
2.584840366e-27
1.909332821e-28
0
0
0
0
0
0
0
0
0
0
0
0
0
0
0
0
0
0
0
0
0
0
0
0
0
0
0
0
0
0
0
0
0
0
0
0
0
0
0
0
0
7.757323227e-29
3.488783459e-28
7.960713256e-29
2.189948442e-28
6.234426383e-28
1.637322154e-27
3.204849127e-27
4.442348994e-27
5.995221776e-27
5.758801127e-27
5.768609231e-27
5.614589359e-27
5.493366631e-27
7.382242431e-27
4.657094768e-27
4.890149361e-27
3.797358792e-27
1.432605235e-27
0
0
0
0
0
0
0
0
0
0
0
0
0
0
0
0
0
0
0
0
0
0
0
0
0
0
0
0
0
0
0
0
0
0
0
0
0
0
0
0
0
0
6.010678205e-29
2.429347297e-29
4.106632693e-29
9.455879324e-29
3.082848262e-28
7.915393984e-28
1.041521955e-27
1.330227316e-27
1.052763787e-27
6.449609069e-28
5.814967881e-28
6.478148872e-28
1.078709381e-27
2.554765685e-27
1.960543411e-27
2.42256586e-27
1.958922756e-27
1.081917684e-27
0
0
0
0
0
0
0
0
0
0
0
0
0
0
0
0
0
0
0
0
0
0
0
0
0
0
0
0
0
0
0
0
0
0
0
0
0
0
0
0
0
0
2.726702733e-29
5.179890163e-29
2.286470925e-28
1.131241968e-27
7.638759095e-28
6.801632364e-28
5.262296279e-28
4.185850476e-28
5.964859001e-28
5.833875921e-28
5.751848833e-28
5.651138968e-28
6.578250648e-28
2.790224733e-27
1.499838643e-27
1.760852804e-27
1.742331862e-27
1.226947789e-27
1.179625996e-28
0
0
0
0
0
0
0
0
0
0
0
0
0
0
0
0
0
0
0
0
0
0
0
0
0
0
0
0
0
0
0
0
0
0
0
0
0
0
0
0
0
2.809828454e-29
6.161455473e-29
1.489534382e-28
6.252207124e-28
6.835004897e-28
6.655966115e-28
1.195938684e-27
5.433995013e-28
5.895854077e-28
5.876835096e-28
5.751746766e-28
5.478491398e-28
1.611844294e-27
1.661515158e-27
1.790596236e-27
2.069018008e-27
2.167441848e-27
2.039223289e-27
1.412788769e-27
0
0
0
0
0
0
0
0
0
0
0
0
0
0
0
0
0
0
0
0
0
0
0
0
0
0
0
0
0
0
0
0
0
0
0
0
0
0
0
0
0
2.933703855e-28
6.641528933e-28
7.988494376e-28
7.24039278e-28
6.721758525e-28
1.20396978e-27
5.780603559e-28
5.863466178e-28
5.891490988e-28
5.820284608e-28
5.710568393e-28
5.318765233e-28
2.360573361e-27
2.038997585e-27
2.206087715e-27
2.364460533e-27
2.758148781e-27
2.95693225e-27
4.561817755e-27
8.761103327e-27
1.696697722e-26
0
0
0
0
0
0
0
0
0
0
0
0
0
0
0
0
0
0
0
0
0
0
0
0
0
0
0
0
0
0
0
0
0
0
0
0
0
0
0
9.018554551e-28
9.944761983e-28
1.342109934e-27
1.127995539e-27
1.365056395e-27
6.40088703e-28
5.807361683e-28
5.864171093e-28
5.781134544e-28
5.62413969e-28
7.743322901e-28
2.7394676e-27
4.736242625e-27
3.005314006e-27
2.876290637e-27
2.964177864e-27
3.47247341e-27
4.759217822e-27
8.845723768e-27
1.614850184e-26
2.805794516e-26
0
0
0
0
0
0
0
0
0
0
0
0
0
0
0
0
0
0
0
0
0
0
0
0
0
0
0
0
0
0
0
0
0
0
0
0
0
0
0
1.456058625e-27
1.432957328e-27
1.410708555e-27
1.433226348e-27
6.621355628e-28
5.778674963e-28
5.862863843e-28
5.83545028e-28
5.797083288e-28
7.083270799e-28
3.903307496e-27
2.264013925e-27
3.077215287e-27
2.741388922e-27
2.792808417e-27
3.245340779e-27
4.363892986e-27
6.493827717e-27
1.172515187e-26
2.012257881e-26
3.196252135e-26
0
0
0
0
0
0
0
0
0
0
0
0
0
0
0
0
0
0
0
0
0
0
0
0
0
0
0
0
0
0
0
0
0
0
0
0
0
0
0
1.353932433e-27
1.363375066e-27