/*--------------------------------*- C++ -*----------------------------------*\
  =========                 |
  \\      /  F ield         | OpenFOAM: The Open Source CFD Toolbox
   \\    /   O peration     | Website:  https://openfoam.org
    \\  /    A nd           | Version:  10
     \\/     M anipulation  |
\*---------------------------------------------------------------------------*/
FoamFile
{
    format      ascii;
    class       volScalarField;
    location    "0.02499901733";
    object      CO2_0;
}
// * * * * * * * * * * * * * * * * * * * * * * * * * * * * * * * * * * * * * //

dimensions      [0 0 0 0 0 0 0];

internalField   nonuniform List<scalar> 
5170
(
3.126167791e-12
3.120598586e-12
3.084120638e-12
2.826785e-12
2.206643277e-13
6.292127357e-12
6.274685856e-12
6.19689593e-12
5.801546409e-12
3.567596228e-12
9.446716707e-12
9.4176215e-12
9.303383837e-12
8.829986301e-12
6.974113303e-12
1.258115557e-11
1.254150957e-11
1.239950257e-11
1.189303691e-11
1.041037113e-11
1.569503433e-11
1.564645605e-11
1.548660914e-11
1.498421304e-11
1.387079944e-11
1.878572586e-11
1.873132071e-11
1.856426999e-11
1.81007241e-11
1.735604475e-11
2.185206483e-11
2.179464583e-11
2.16309465e-11
2.124081606e-11
2.086451179e-11
2.489512282e-11
2.483857839e-11
2.468820099e-11
2.440044206e-11
2.439331656e-11
2.791578984e-11
2.78634142e-11
2.773720841e-11
2.757915613e-11
2.793961519e-11
3.091647087e-11
3.087063208e-11
3.077597091e-11
3.077752594e-11
3.150195876e-11
3.38984579e-11
3.386156297e-11
3.380471979e-11
3.399506252e-11
3.507751617e-11
3.686135434e-11
3.683638492e-11
3.683012031e-11
3.722978238e-11
3.866118076e-11
3.980590358e-11
3.979589825e-11
3.985487968e-11
4.048128007e-11
4.224878506e-11
4.273303934e-11
4.274113771e-11
4.287854136e-11
4.374911944e-11
4.583676286e-11
4.564351755e-11
4.5673504e-11
4.590162744e-11
4.703148581e-11
4.942114627e-11
4.85373009e-11
4.859333654e-11
4.892904775e-11
5.032924482e-11
5.299400409e-11
5.141551642e-11
5.150253513e-11
5.196044097e-11
5.365227124e-11
5.662031772e-11
5.434675022e-11
5.461781278e-11
5.625530144e-11
6.604531854e-11
9.483980111e-11
8.162969094e-11
1.555727018e-10
7.21848571e-10
4.887078354e-09
1.963128554e-08
7.33925079e-09
4.068322928e-08
3.25337204e-07
2.302258577e-06
1.117200241e-05
0.1124082591
0.1124128964
0.1124164979
0.1124213151
0.1124470594
0.113824303
0.113695547
0.1137080613
0.1137400014
0.1139504422
0.1146101843
0.1144181544
0.1144314579
0.1144860966
0.1147342971
0.1150383727
0.1148680338
0.1148722962
0.11495675
0.115193305
0.1153415545
0.1151805594
0.1151721954
0.1152493755
0.1154579101
0.1155193502
0.1153746078
0.1153625684
0.1154444537
0.1156035763
0.1156389799
0.1155227964
0.1155146943
0.1155719782
0.1157215811
0.1157336472
0.1156274757
0.1156165718
0.115677822
0.1158158726
0.1158148774
0.1157154123
0.1157034502
0.1157710245
0.1158672523
0.1158582439
0.1157965784
0.1157853783
0.1158325848
0.1159202639
0.1159051206
0.1158401272
0.115831217
0.1158806259
0.1159347615
0.1159199589
0.1158848812
0.115879629
0.1159236673
0.1159609791
0.1159425376
0.1159188769
0.1159192523
0.1159447755
0.1159851653
0.1159646305
0.115938371
0.1159376728
0.1159659562
0.1160105242
0.1159901297
0.11595785
0.1159574538
0.1159888577
0.1160358068
0.1160166943
0.115980488
0.1159801225
0.116013468
0.1160598312
0.1160423343
0.1160056435
0.116005319
0.1160383421
0.1160817313
0.1160651616
0.1160313698
0.1160314732
0.1160622367
0.1161007468
0.1160839244
0.1160556183
0.116056131
0.116081317
0.1161102179
0.116165044
0.116038154
0.1159901072
0.1158734606
0.115601595
2.744095097e-07
2.139819435e-06
3.303393541e-05
0.0004926798658
0.00660448229
1.493274269e-06
1.009754834e-05
0.0001235490498
0.001294668986
0.009828735685
4.977360166e-06
3.014455573e-05
0.0003015428786
0.002381812073
0.01212835799
1.298265802e-05
7.091675636e-05
0.0005945990161
0.00370166602
0.01386438372
2.942511912e-05
0.0001464490572
0.00104408198
0.005176717555
0.01518388384
6.132945934e-05
0.0002811583847
0.00169111958
0.006691983973
0.01630148938
0.0001198056587
0.0005034878629
0.002531709358
0.00817937333
0.01738869775
0.0002217753801
0.0008474643224
0.003550533599
0.009617042578
0.01844776819
0.0003938209664
0.001353123435
0.004718068076
0.01099724257
0.01946385856
0.0006751990559
0.002054760829
0.006001335453
0.01234910442
0.02047229715
0.00112511858
0.002987579008
0.00737297283
0.01368232023
0.02147595938
0.001880700738
0.004174151877
0.008807876785
0.01502657602
0.02250540617
0.002982463672
0.005582124152
0.01031316844
0.01639757732
0.02356467457
0.004540187123
0.007241538253
0.01192869175
0.01783289836
0.02469420974
0.006591368357
0.009179851096
0.01369826247
0.01937370301
0.02592613964
0.009018738373
0.0114096066
0.01568598671
0.02108682877
0.02730595917
0.01192998754
0.01405064717
0.01798375303
0.02303495565
0.02888720686
0.01514508339
0.01698231281
0.02053916967
0.0252357254
0.0307483044
0.01853935885
0.02015715993
0.02336089643
0.0276320224
0.03262955189
0.02216378446
0.0235104045
0.02616963002
0.02964031083
0.03352340151
0.02557307633
0.02645056206
0.02815046031
0.03028297315
0.0325242808
0.02705085522
0.0274220431
0.02813867012
0.02900222116
0.02982223029
0.02582448104
0.02590477676
0.02603485097
0.02613402268
0.02611942372
0.0228421456
0.02279619019
0.02267030202
0.02243895879
0.02207811867
0.01924905288
0.01916871422
0.01897848141
0.01867598081
0.01825947946
0.01580628853
0.01572812024
0.01554945948
0.01527351275
0.01490558373
0.01300843131
0.01294460961
0.01279874672
0.01257564812
0.01228160693
0.01076716347
0.01071758877
0.01060491352
0.0104334469
0.010208574
0.009016234978
0.008978703758
0.008893766058
0.008764831027
0.008595991367
0.00766642043
0.007638298827
0.007574858107
0.007478652382
0.007352624365
0.006633417453
0.006612329932
0.006564884789
0.006492946524
0.006398565562
0.005845079096
0.005829087713
0.005793198907
0.005738771405
0.005667214115
0.005242151318
0.005229772954
0.005202069746
0.005160047394
0.005104673635
0.004777907688
0.004768066458
0.004746108061
0.004712800842
0.004668818019
0.004416801882
0.004408746305
0.00439083074
0.004363663911
0.004327724717
0.00413216916
0.004125387725
0.00411035303
0.004087566385
0.004057378986
0.003903835458
0.003897984405
0.003885049786
0.003865458007
0.003839475439
0.003716423906
0.003711275857
0.00369992205
0.003682734524
0.003659922708
0.003558327467
0.003553732099
0.003543615566
0.003528307775
0.003507978724
0.003421052941
0.003416910195
0.003407801382
0.003394022136
0.003375714218
0.003298638088
0.003294878876
0.00328661999
0.003274127825
0.003257522978
0.003187077569
0.003183651835
0.003176128923
0.003164749753
0.003149618439
0.003083771099
0.003080640069
0.003073765869
0.003063366817
0.00304953368
0.002987061619
0.0029841937
0.002977897522
0.002968371309
0.002955694776
0.002895883354
0.002893251613
0.002887473861
0.002878730359
0.002867091464
0.00280952482
0.002807105917
0.002801795002
0.002793756329
0.002783052263
0.002727481861
0.002725255196
0.002720365922
0.00271296394
0.002703104703
0.002649373391
0.00264732078
0.002642813169
0.002635987632
0.002626893638
0.002574893308
0.002572998525
0.002568837078
0.002562534506
0.002554135046
0.002503780999
0.002502029607
0.002498182633
0.002492355275
0.002484587201
0.002435800434
0.002434179371
0.002430618428
0.002425223467
0.002418030131
0.002370779343
0.002369277137
0.002365976819
0.002360975859
0.002354306378
0.002308513811
0.00230711994
0.002304057337
0.002299415863
0.002293224523
0.002248835299
0.002247540407
0.00224469499
0.002240382041
0.002234627812
0.002191588886
0.002190384563
0.002187737934
0.00218372574
0.002178371791
0.002136633153
0.002135511835
0.002133047391
0.002129310899
0.002124323995
0.002083839542
0.002082794398
0.002080497191
0.002077013828
0.002072364008
0.002033089141
0.002032113979
0.002029970419
0.002026719665
0.002022379686
0.00198427292
0.001983362146
0.001981359989
0.001978323344
0.001974268632
0.00193728567
0.001936434173
0.001934562195
0.001931722703
0.00192793073
0.00189203276
0.001891235939
0.001889484064
0.001886826491
0.001883277006
0.001848417763
0.001847671356
0.00184603022
0.001843540411
0.001840214593
0.001806363536
0.001805663744
0.001804125022
0.001801790388
0.001798671495
0.001765779691
0.001765122924
0.001763678724
0.001761487326
0.001758559469
0.001726616671
0.001725999862
0.00172464347
0.001722585156
0.001719834828
0.001688766101
0.00168818622
0.001686910962
0.001684975619
0.001682389352
0.001652232177
0.001651686784
0.001650487327
0.001648666904
0.001646233991
0.0016169032
0.001616389541
0.001615259808
0.001613545091
0.001611253265
0.001583333736
0.001582849732
0.00158178523
0.001580169451
0.001578009698
0.001554502267
0.001554042407
0.001553030923
0.001551495505
0.001549442983
0.024188062
0.02429321163
0.02429766837
0.0242889777
0.02433938286
0.02457819305
0.02502751949
0.02555386788
0.02610229908
0.02671393245
0.02737456602
0.02810064379
0.0288743401
0.02973374027
0.03071545714
0.03183477056
0.03316125606
0.03480188128
0.03625704113
0.03616243332
0.03392975207
0.03026046935
0.02601874493
0.02177284851
0.01793418762
0.01462460372
0.01205976859
0.01003930642
0.008468679835
0.007257193732
0.006326659781
0.005612279227
0.005061791834
0.004634441564
0.004299375645
0.004033361707
0.003818648178
0.003641524935
0.003491505969
0.003360827923
0.003243988338
0.003137263696
0.003038225187
0.002945322642
0.002857561921
0.002774283397
0.002695024274
0.002619437461
0.0025472459
0.002478213882
0.002412126597
0.002348831348
0.002288140747
0.002229901875
0.00217397367
0.002120226582
0.002068542847
0.00201881253
0.001970935401
0.001924813006
0.001880358233
0.001837479376
0.001796106134
0.001756150955
0.001717572096
0.001680261371
0.001644232001
0.001609367231
0.001576232176
0.001547753526
0.05970667577
0.108136393
0.1128525732
0.1031930349
0.07614542663
0.05009998357
0.08665477392
0.1131691874
0.09717640114
0.06063638399
0.04545124957
0.07563771777
0.1052738441
0.09773957743
0.05642949405
0.04216735029
0.06747818614
0.09093074752
0.1011781096
0.0653328222
0.03990872311
0.06254084264
0.08551037071
0.1045406232
0.07914632984
0.03851159168
0.05951238258
0.08212530616
0.1042162414
0.09086140092
0.03772090242
0.05731592743
0.07866570278
0.1000836444
0.09951425378
0.03719658428
0.05519643617
0.07421718167
0.09238115428
0.103818568
0.03684952259
0.05348408501
0.07103021899
0.0886990796
0.1051192971
0.03671772055
0.05230279378
0.06902674859
0.08679482155
0.1042192817
0.0367560552
0.05147139661
0.06742619982
0.08457592028
0.1010570332
0.03693190117
0.05080443296
0.06573596593
0.08144214369
0.09581650565
0.03720046223
0.05024378557
0.0641425869
0.07856535609
0.0919760474
0.03758933582
0.04988433223
0.06297896501
0.07668779668
0.09013946763
0.0381452715
0.04979126239
0.06220915634
0.07529271932
0.08847333481
0.03883763684
0.04982500265
0.06155145363
0.07394643568
0.08656939642
0.03974734277
0.05016111668
0.06136866672
0.07336942312
0.08580179572
0.04102418655
0.05103599694
0.06198291849
0.07397687751
0.08674831314
0.04177344796
0.05047248367
0.05993633563
0.07148444472
0.08722727763
0.04009637188
0.04537721643
0.04957737074
0.05231689308
0.05279061882
0.03602845521
0.03805449049
0.0384955936
0.03710311803
0.03380498397
0.03097180162
0.03101130405
0.02980149759
0.02739077426
0.02402157608
0.02596637235
0.02511174647
0.02346720743
0.02117454432
0.01845866631
0.02142773416
0.02037059652
0.01882923048
0.01693746755
0.0148569314
0.01754642757
0.01658036479
0.01530516116
0.01382605923
0.01225040642
0.01428293867
0.01349816306
0.01250862812
0.01139155809
0.01021934376
0.01178813794
0.01118045609
0.01042760338
0.009585937768
0.008705726085
0.009830473751
0.009369606431
0.008802663427
0.008170042881
0.007506899233
0.008310218932
0.007963222106
0.007537233173
0.007060866912
0.006558794578
0.007137105222
0.006875673713
0.006554639673
0.006194059325
0.005811226799
0.006234927545
0.006036438059
0.005792438725
0.005516857588
0.005221782652
0.005541019661
0.005387987885
0.005199744014
0.004985911675
0.004754934307
0.005005076589
0.004884447592
0.00473614794
0.004566835267
0.004382432662
0.00458799713
0.004490364452
0.004370603853
0.004233354103
0.004082810237
0.004260227818
0.004179014494
0.004079772407
0.003965771304
0.003840023637
0.003999495875
0.003930191292
0.003845911395
0.003748996067
0.003641646857
0.003788732991
0.003728286899
0.003655154593
0.003571043967
0.003477599108
0.003614696855
0.003561067151
0.003496481162
0.003422216946
0.003339534184
0.003467207136
0.003419029953
0.003361220792
0.003294764392
0.003220653429
0.003338688599
0.00329504142
0.00324279736
0.003182738674
0.003115669655
0.003223747889
0.00318398481
0.003136456617
0.003081802516
0.003020690362
0.003118722148
0.00308236606
0.003038934416
0.002988961836
0.002933013812
0.003021216501
0.002987892584
0.002948081786
0.002902239167
0.002850850476
0.002929701534
0.002899099124
0.002862524591
0.002820370095
0.00277305706
0.00284319832
0.002815050551
0.002781388712
0.002742553639
0.002698913439
0.00276105996
0.002735132589
0.002704103525
0.002668270742
0.002627957285
0.00268283537
0.002658921014
0.002630279057
0.002597171096
0.002559881601
0.002608188078
0.002586101902
0.002559629157
0.002529000226
0.002494466254
0.002536850713
0.002516427495
0.00249192957
0.002463560349
0.002431542019
0.002468596184
0.002449687771
0.00242699048
0.002400684286
0.002370966111
0.002403217267
0.002385690324
0.002364636914
0.002340216567
0.002312604089
0.002340568404
0.0023243027
0.002304751378
0.002282056187
0.002256372612
0.002280468103
0.002265355333
0.00224717848
0.002226063714
0.002202149555
0.002222769197
0.002208711968
0.002191794655
0.002172129767
0.002149840903
0.002167335723
0.002154246385
0.00213848504
0.002120152192
0.002099358305
0.002114042496
0.002101841798
0.002087142676
0.002070035062
0.002050617828
0.002062775727
0.002051392081
0.002037670412
0.00202169132
0.002003543426
0.002013428803
0.002002796984
0.001989975457
0.001975036565
0.001958059853
0.001965904758
0.001955965854
0.001943974551
0.001929995877
0.001914101325
0.001920107668
0.001910807551
0.001899582153
0.001886490017
0.001871595482
0.001875953202
0.001867243199
0.001856725801
0.001844453785
0.00183048513
0.001833351456
0.001825186214
0.001815322801
0.001803808876
0.001790696769
0.001792234615
0.00178457382
0.001775316353
0.001764505309
0.001752187967
0.001752516241
0.001745321442
0.001736624078
0.001726463183
0.001714881551
0.001714157392
0.001707396033
0.001699219925
0.001689664453
0.001678768362
0.001677050152
0.001670689512
0.001662995522
0.001654000314
0.001643739049
0.001641210911
0.001635225347
0.001627982855
0.001619512631
0.001609846557
0.001606521362
0.001600881015
0.001594054313
0.001586067899
0.001576950803
0.001573549819
0.001568232896
0.001561795828
0.001554262789
0.00154566005
0.001545204182
0.001540148946
0.001534027312
0.001526861553
0.001518675905
0.009126871205
0.0005947887452
5.016218476e-05
9.199466959e-06
2.883716452e-06
1.122584817e-06
4.584780379e-07
1.872132936e-07
7.588959941e-08
3.104102632e-08
1.335093294e-08
6.472300885e-09
3.80179863e-09
2.751616893e-09
2.328666587e-09
2.154235294e-09
2.079571576e-09
2.046171363e-09
2.031677335e-09
2.025300246e-09
2.022367862e-09
2.020900137e-09
2.020058491e-09
2.019496869e-09
2.019073845e-09
2.01872607e-09
2.018423202e-09
2.018154199e-09
2.017909648e-09
2.017682821e-09
2.017472486e-09
2.017275834e-09
2.017093242e-09
2.016924524e-09
2.016769739e-09
2.016628455e-09
2.016500132e-09
2.016384036e-09
2.016276859e-09
2.016179204e-09
2.016086343e-09
2.015998104e-09
2.015915364e-09
2.015835279e-09
2.015762774e-09
2.015706226e-09
2.015658358e-09
2.01561898e-09
2.015582607e-09
2.015553474e-09
2.015527561e-09
2.015505711e-09
2.015485487e-09
2.015463565e-09
2.015350545e-09
2.014482393e-09
2.008986892e-09
1.983522056e-09
1.894767395e-09
1.778317625e-09
0.01541294497
0.001635632298
0.0001374583019
2.037745848e-05
5.691067422e-06
2.214111939e-06
9.790646094e-07
4.487661246e-07
2.068176779e-07
9.57325435e-08
4.536258193e-08
2.281071291e-08
1.278171599e-08
8.32360943e-09
6.3333683e-09
5.441260065e-09
5.038787351e-09
4.856059075e-09
4.774556416e-09
4.738306437e-09
4.721991745e-09
4.714335226e-09
4.710447475e-09
4.708254605e-09
4.706872108e-09
4.705871693e-09
4.705060952e-09
4.704395016e-09
4.70380416e-09
4.703284315e-09
4.702821989e-09
4.702388438e-09
4.70201355e-09
4.701681866e-09
4.70139325e-09
4.7011427e-09
4.700952017e-09
4.700799783e-09
4.700651122e-09
4.700532337e-09
4.700432994e-09
4.700327828e-09
4.70025211e-09
4.700214673e-09
4.700155113e-09
4.700139909e-09
4.700080979e-09
4.700079313e-09
4.700065958e-09
4.700107239e-09
4.70013914e-09
4.700167937e-09
4.700196477e-09
4.700252326e-09
4.700107571e-09
4.698938444e-09
4.693235306e-09
4.674404588e-09
4.639795849e-09
4.6206149e-09
0.01838558009
0.002531285416
0.0002011372767
2.607119421e-05
6.711695375e-06
2.605197385e-06
1.223005993e-06
6.207476175e-07
3.21858041e-07
1.679109355e-07
8.840415843e-08
4.772103317e-08
2.716278012e-08
1.689642772e-08
1.182999392e-08
9.363132932e-09
8.179899511e-09
7.622567935e-09
7.365192057e-09
7.24804295e-09
7.194981456e-09
7.170649199e-09
7.159074999e-09
7.153189813e-09
7.149884925e-09
7.147771197e-09
7.146224263e-09
7.145007742e-09
7.143987077e-09
7.143119839e-09
7.14237081e-09
7.141723569e-09
7.141198805e-09
7.140759354e-09
7.140407233e-09
7.140136428e-09
7.139938239e-09
7.139780459e-09
7.139640577e-09
7.1395451e-09
7.139495082e-09
7.139477874e-09
7.139505866e-09
7.13959838e-09
7.139679239e-09
7.139809455e-09
7.139895098e-09
7.140058364e-09
7.140193751e-09
7.140398152e-09
7.140614175e-09
7.140864053e-09
7.141054756e-09
7.141348926e-09
7.141495067e-09
7.141413137e-09
7.140888898e-09
7.14418822e-09
7.175161004e-09
7.224890698e-09
0.02791293408
0.006384732861
0.0005819069225
4.315145343e-05
7.710165642e-06
2.716304636e-06
1.308906327e-06
7.120829975e-07
4.032669343e-07
2.318911113e-07
1.340328606e-07
7.799810902e-08
4.625294394e-08
2.858421817e-08
1.897350311e-08
1.389153659e-08
1.129123158e-08
1.000825188e-08
9.39345398e-09
9.106435194e-09
8.974951972e-09
8.915334768e-09
8.888280386e-09
8.875801791e-09
8.869815487e-09
8.866710727e-09
8.864898816e-09
8.863712242e-09
8.862849578e-09
8.862190517e-09
8.861668875e-09
8.861260092e-09
8.860977113e-09
8.860793186e-09
8.860686328e-09
8.860666993e-09
8.860713695e-09
8.860788019e-09
8.860871163e-09
8.860990565e-09
8.861150436e-09
8.861339715e-09
8.861566454e-09
8.861849706e-09
8.862148176e-09
8.862481408e-09
8.862790706e-09
8.863147697e-09
8.863475268e-09
8.86387197e-09
8.864268942e-09
8.864716592e-09
8.865093732e-09
8.865611137e-09
8.866142059e-09
8.867422425e-09
8.871575015e-09
8.8886765e-09
8.942278047e-09
9.003467257e-09
0.04078879336
0.01347506761
0.002321888609
0.0001829481135
1.802943918e-05
4.102488024e-06
1.641894107e-06
8.478125874e-07
4.85577234e-07
2.906587433e-07
1.771088308e-07
1.086232505e-07
6.718034671e-08
4.223651409e-08
2.751945191e-08
1.911519841e-08
1.451681703e-08
1.211815139e-08
1.091487628e-08
1.033298331e-08
1.00598332e-08
9.93458333e-09
9.878220041e-09
9.853245649e-09
9.842328104e-09
9.837602832e-09
9.835574184e-09
9.834726544e-09
9.834403422e-09
9.834331549e-09
9.834387874e-09
9.834524831e-09
9.83473536e-09
9.835003542e-09
9.835310162e-09
9.835662736e-09
9.83604568e-09
9.8364342e-09
9.836817335e-09
9.837214784e-09
9.837629209e-09
9.838049169e-09
9.838482584e-09
9.838942924e-09
9.83941004e-09
9.839891018e-09
9.840362191e-09
9.840847223e-09
9.841308804e-09
9.841811548e-09
9.842308096e-09
9.842843133e-09
9.843327696e-09
9.843944079e-09
9.844710421e-09
9.84659432e-09
9.85207427e-09
9.869723152e-09
9.912610291e-09
9.955158329e-09
0.05493802106
0.02472236425
0.007206731172
0.001076497905
8.750668126e-05
1.125691496e-05
2.965871314e-06
1.218288719e-06
6.247698789e-07
3.583988062e-07
2.178506507e-07
1.362850362e-07
8.649795687e-08
5.553384211e-08
3.636188805e-08
2.478020643e-08
1.802561795e-08
1.425770674e-08
1.224530107e-08
1.121927826e-08
1.071737083e-08
1.048022235e-08
1.037143447e-08
1.032289529e-08
1.030191309e-08
1.029324434e-08
1.028996317e-08
1.028899556e-08
1.028899775e-08
1.028940017e-08
1.028995979e-08
1.029057926e-08
1.029122463e-08
1.029187992e-08
1.029253222e-08
1.029318458e-08
1.029383052e-08
1.029446144e-08
1.029507402e-08
1.029567926e-08
1.029627866e-08
1.029686418e-08
1.029744152e-08
1.029801525e-08
1.029857579e-08
1.029913219e-08
1.029967915e-08
1.030022369e-08
1.030074696e-08
1.030127742e-08
1.03017936e-08
1.030232784e-08
1.030283728e-08
1.03034499e-08
1.030426863e-08
1.030606748e-08
1.031065956e-08
1.032299706e-08
1.034795229e-08
1.037034222e-08
0.06838067753
0.03675582448
0.01535252411
0.004192004654
0.0005406992129
4.601094989e-05
7.299068474e-06
2.167334032e-06
9.205011252e-07
4.732677713e-07
2.722611429e-07
1.672252919e-07
1.064370603e-07
6.911191262e-08
4.56638603e-08
3.098795977e-08
2.200763584e-08
1.670701232e-08
1.370059481e-08
1.207528055e-08
1.123668566e-08
1.082253503e-08
1.062574341e-08
1.053542455e-08
1.049542278e-08
1.047850093e-08
1.047188651e-08
1.046975695e-08
1.046952072e-08
1.047005198e-08
1.047086986e-08
1.047177694e-08
1.047269662e-08
1.047359876e-08
1.047447065e-08
1.047531222e-08
1.047612216e-08
1.047689975e-08
1.04776461e-08
1.047836693e-08
1.047906428e-08
1.047973552e-08
1.048038475e-08
1.048101383e-08
1.048161964e-08
1.048220716e-08
1.048277614e-08
1.04833317e-08
1.048386824e-08
1.048439357e-08
1.048490148e-08
1.048541097e-08
1.048591323e-08
1.048649677e-08
1.048729058e-08
1.048882347e-08
1.049217709e-08
1.049961227e-08
1.051228168e-08
1.052256507e-08
0.08068479882
0.04871897646
0.02548963098
0.0104485767
0.002486855667
0.0002440469368
2.379924894e-05
4.755411625e-06
1.577668929e-06
6.950792383e-07
3.628549347e-07
2.113459204e-07
1.315823552e-07
8.502239141e-08
5.620491166e-08
3.80044875e-08
2.659430085e-08
1.961530427e-08
1.546921764e-08
1.310408434e-08
1.181572562e-08
1.114646853e-08
1.081414403e-08
1.065575634e-08
1.058310895e-08
1.05511638e-08
1.053792726e-08
1.053303914e-08
1.053176471e-08
1.053199428e-08
1.053281085e-08
1.053382814e-08
1.053488814e-08
1.053592977e-08
1.053693035e-08
1.053788496e-08
1.05387936e-08
1.053965802e-08
1.054048119e-08
1.054126711e-08
1.054201861e-08
1.054273655e-08
1.054342406e-08
1.054408346e-08
1.054471558e-08
1.054532253e-08
1.054590464e-08
1.054646499e-08
1.054700398e-08
1.054752484e-08
1.054802839e-08
1.054852689e-08
1.05490303e-08
1.054960958e-08
1.055039838e-08
1.055176829e-08
1.055434019e-08
1.055903306e-08
1.056577602e-08
1.057057041e-08
0.09119566924
0.05994478485
0.03510472196
0.01824839746
0.00713629946
0.001208548048
9.423597219e-05
1.208562626e-05
3.019170918e-06
1.107933676e-06
5.115169875e-07
2.764590243e-07
1.657765768e-07
1.054906492e-07
6.930648811e-08
4.656772279e-08
3.216844672e-08
2.318169758e-08
1.768386744e-08
1.442652938e-08
1.257072859e-08
1.155936673e-08
1.103323045e-08
1.077157098e-08
1.064681681e-08
1.058976006e-08
1.056489999e-08
1.055484474e-08
1.055138441e-08
1.055076036e-08
1.055129887e-08
1.055227487e-08
1.055338358e-08
1.055450232e-08
1.055558442e-08
1.055661545e-08
1.05575927e-08
1.055851812e-08
1.055939508e-08
1.056022743e-08
1.056101867e-08
1.056177139e-08
1.056248869e-08
1.056317315e-08
1.056382687e-08
1.056445195e-08
1.056504969e-08
1.056562214e-08
1.056617069e-08
1.056669804e-08
1.056720793e-08
1.056771218e-08
1.056823199e-08
1.056883602e-08
1.0569664e-08
1.057100754e-08
1.05732614e-08
1.057680517e-08
1.058122157e-08
1.058385141e-08
0.09955750548
0.07127423599
0.04477989656
0.02573465184
0.01265197494
0.003745596501
0.0003913362037
3.268235438e-05
5.90102387e-06
1.78226318e-06
7.281119906e-07
3.657685374e-07
2.114148075e-07
1.324587877e-07
8.640727973e-08
5.765276997e-08
3.934479719e-08
2.77755678e-08
2.056298604e-08
1.617844681e-08
1.35970366e-08
1.213452863e-08
1.134111653e-08
1.092980041e-08
1.072586023e-08
1.062898392e-08
1.058496107e-08
1.056603962e-08
1.055863634e-08
1.055634235e-08
1.055622672e-08
1.055698688e-08
1.055806064e-08
1.055921359e-08
1.056035268e-08
1.056144449e-08
1.056247943e-08
1.056345736e-08
1.056438129e-08
1.056525527e-08
1.056608325e-08
1.056686874e-08
1.05676151e-08
1.056832525e-08
1.056900172e-08
1.056964687e-08
1.057026261e-08
1.057085115e-08
1.057141447e-08
1.05719555e-08
1.057247952e-08
1.057300042e-08
1.057354797e-08
1.057419731e-08
1.057509607e-08
1.05764968e-08
1.057868911e-08
1.058183835e-08
1.058540971e-08
1.058714597e-08
0.1049310965
0.08241966956
0.0551301182
0.03380522588
0.0184105477
0.00710950041
0.001169486713
9.777991774e-05
1.249771969e-05
2.947230688e-06
1.039367738e-06
4.828736299e-07
2.697651864e-07
1.670393434e-07
1.085236528e-07
7.209792722e-08
4.875102417e-08
3.38324846e-08
2.439046127e-08
1.853929334e-08
1.500904475e-08
1.294757122e-08
1.178917025e-08
1.11656026e-08
1.084462686e-08
1.068653736e-08
1.061199302e-08
1.057847921e-08
1.056436335e-08
1.055910328e-08
1.055774305e-08
1.055802431e-08
1.055894775e-08
1.056008486e-08
1.056125893e-08
1.056240155e-08
1.056348936e-08
1.056451713e-08
1.056548643e-08
1.05664011e-08
1.056726544e-08
1.056808351e-08
1.056885903e-08
1.056959533e-08
1.05702953e-08
1.057096164e-08
1.057159662e-08
1.057220271e-08
1.057278253e-08
1.057333991e-08
1.057388196e-08
1.0574426e-08
1.057500954e-08
1.057571686e-08
1.057670182e-08
1.05781937e-08
1.058042166e-08
1.058344396e-08
1.058666188e-08
1.058790929e-08
0.1072357374
0.09168147264
0.06537274996
0.04179458584
0.02383457128
0.01042933289
0.002454622548
0.0002231075673
2.37713036e-05
4.478268612e-06
1.39344663e-06
6.144093678e-07
3.378046194e-07
2.086860582e-07
1.357288871e-07
9.017805703e-08
6.07213205e-08
4.16559493e-08
2.940441274e-08
2.168135912e-08
1.692536624e-08
1.407855341e-08
1.243106441e-08
1.151429149e-08
1.102561838e-08
1.07764209e-08
1.065479992e-08
1.059804017e-08
1.057290087e-08
1.056261006e-08
1.055904848e-08
1.055842016e-08
1.055900469e-08
1.056004567e-08
1.056122156e-08
1.056240188e-08
1.056353766e-08
1.056461368e-08
1.056562799e-08
1.056658347e-08
1.056748445e-08
1.056833532e-08
1.056914021e-08
1.056990287e-08
1.057062656e-08
1.057131442e-08
1.057196904e-08
1.057259325e-08
1.057319027e-08
1.057376513e-08
1.057432731e-08
1.057489858e-08
1.057552433e-08
1.057629741e-08
1.057737355e-08
1.057896257e-08
1.058124741e-08
1.058421334e-08
1.058721663e-08
1.058807546e-08
0.1074021863
0.09862679198
0.07444809
0.04926451555
0.02875624836
0.01337188839
0.003809415145
0.0004370328472
4.156952277e-05
6.525070083e-06
1.785090881e-06
7.57100828e-07
4.146602933e-07
2.569351097e-07
1.676810972e-07
1.116808413e-07
7.517388988e-08
5.127101178e-08
3.567977943e-08
2.568697045e-08
1.941853097e-08
1.558543132e-08
1.331069611e-08
1.20076933e-08
1.129058991e-08
1.091251476e-08
1.072171964e-08
1.062956639e-08
1.05870865e-08
1.05686293e-08
1.056136891e-08
1.055913924e-08
1.055907476e-08
1.05598846e-08
1.05610054e-08
1.056220039e-08
1.05633754e-08
1.056449671e-08
1.056555528e-08
1.056655157e-08
1.056748937e-08
1.056837321e-08
1.056920758e-08
1.056999664e-08
1.057074411e-08
1.057145348e-08
1.057212773e-08
1.057277015e-08
1.057338469e-08
1.057397795e-08
1.057456232e-08
1.057516433e-08
1.0575837e-08
1.057668011e-08
1.057784705e-08
1.057952754e-08
1.058186323e-08
1.058478083e-08
1.058760334e-08
1.058807507e-08
0.1061533747
0.1034358092
0.08228018175
0.05599350371
0.03281546487
0.01541875525
0.004851974605
0.0008022864709
6.985925441e-05
9.894681387e-06
2.371774146e-06
9.48114138e-07
5.10019724e-07
3.142266655e-07
2.048105008e-07
1.365121594e-07
9.192367378e-08
6.251982585e-08
4.311990554e-08
3.051153534e-08
2.247740664e-08
1.747379615e-08
1.444172126e-08
1.266186752e-08
1.165428425e-08
1.110628482e-08
1.082057908e-08
1.067788949e-08
1.060970067e-08
1.057870172e-08
1.056555931e-08
1.056068109e-08
1.055948222e-08
1.055984286e-08
1.056081348e-08
1.056198297e-08
1.056318085e-08
1.056434111e-08
1.056544162e-08
1.056647797e-08
1.056745235e-08
1.05683691e-08
1.056923291e-08
1.057004834e-08
1.057081952e-08
1.057155027e-08
1.057224405e-08
1.057290471e-08
1.057353714e-08
1.057414995e-08
1.057475883e-08
1.057539512e-08
1.05761187e-08
1.057703397e-08
1.05782889e-08
1.058005172e-08
1.058242547e-08
1.058528812e-08
1.058793642e-08
1.058800309e-08
0.1036279906
0.1060645753
0.08821107446
0.06083774236
0.03465858372
0.01566773199
0.005206357019
0.001154264824
0.0001216785205
1.63949842e-05
3.368776382e-06
1.225171143e-06
6.337224544e-07
3.837161712e-07
2.481470783e-07
1.648826388e-07
1.109038904e-07
7.52417323e-08
5.158206803e-08
3.605113154e-08
2.602854652e-08
1.969938974e-08
1.580227749e-08
1.346998181e-08
1.211836575e-08
1.136280887e-08
1.095667066e-08
1.074711643e-08
1.064345234e-08
1.059443595e-08
1.057251113e-08
1.056352056e-08
1.056047844e-08
1.056005875e-08
1.056072944e-08
1.05618077e-08
1.056300041e-08
1.056418795e-08
1.056532567e-08
1.056640013e-08
1.056741026e-08
1.056835948e-08
1.056925248e-08
1.057009406e-08
1.057088871e-08
1.057164062e-08
1.057235382e-08
1.057303286e-08
1.057368387e-08
1.057431775e-08
1.057495378e-08
1.057562806e-08
1.057640605e-08
1.057739416e-08
1.057873275e-08
1.058056789e-08
1.058296647e-08
1.058576636e-08
1.058824456e-08
1.05879196e-08
0.1005100413
0.1063624614
0.09030422474
0.0607603908
0.03215495564
0.01351188989
0.004636662079
0.00130468567
0.0002053120709
3.058170575e-05
5.427453784e-06
1.700157283e-06
8.135938049e-07
4.748153833e-07
3.016149875e-07
1.986267312e-07
1.330099307e-07
8.990633204e-08
6.125969994e-08
4.235222659e-08
3.006524563e-08
2.224122843e-08
1.737286385e-08
1.441956278e-08
1.267765848e-08
1.168202331e-08
1.113238227e-08
1.084010748e-08
1.069069209e-08
1.061743528e-08
1.05831966e-08
1.056820136e-08
1.056235074e-08
1.056067886e-08
1.056082732e-08
1.056171297e-08
1.056285554e-08
1.056405088e-08
1.056521744e-08
1.056632641e-08
1.056737066e-08
1.05683515e-08
1.056927313e-08
1.057014043e-08
1.057095817e-08
1.057173097e-08
1.057246348e-08
1.057316119e-08
1.057383169e-08
1.057448841e-08
1.057515429e-08
1.057586995e-08
1.057670508e-08
1.05777658e-08
1.057918299e-08
1.058108031e-08
1.058349135e-08
1.05862218e-08
1.058853593e-08
1.058785031e-08
0.09957312081
0.1045340451
0.08550086944
0.05156556845
0.02445820347
0.009746671033
0.003570343867
0.0012360599