/*--------------------------------*- C++ -*----------------------------------*\
  =========                 |
  \\      /  F ield         | OpenFOAM: The Open Source CFD Toolbox
   \\    /   O peration     | Website:  https://openfoam.org
    \\  /    A nd           | Version:  10
     \\/     M anipulation  |
\*---------------------------------------------------------------------------*/
FoamFile
{
    format      ascii;
    class       volScalarField;
    location    "0.02499901733";
    object      CO_0;
}
// * * * * * * * * * * * * * * * * * * * * * * * * * * * * * * * * * * * * * //

dimensions      [0 0 0 0 0 0 0];

internalField   nonuniform List<scalar> 
5170
(
2.72084532e-11
2.715983441e-11
2.68418199e-11
2.460220718e-11
1.920924919e-12
5.477587134e-11
5.462353434e-11
5.394479598e-11
5.049827787e-11
3.105461293e-11
8.227559179e-11
8.202148056e-11
8.10249023e-11
7.689591123e-11
6.071833735e-11
1.096016266e-10
1.092556392e-10
1.080175011e-10
1.036014913e-10
9.06712131e-11
1.367390903e-10
1.363154711e-10
1.349224827e-10
1.305440845e-10
1.208359016e-10
1.636656152e-10
1.631914362e-10
1.617361678e-10
1.576978568e-10
1.512068307e-10
1.903740562e-10
1.898738175e-10
1.884480984e-10
1.850501738e-10
1.817704426e-10
2.168751947e-10
2.163827629e-10
2.150734216e-10
2.125676027e-10
2.125039576e-10
2.431765323e-10
2.427206608e-10
2.416222656e-10
2.402462444e-10
2.433831578e-10
2.692978335e-10
2.688992229e-10
2.680760442e-10
2.680897528e-10
2.743942743e-10
2.952491911e-10
2.949288415e-10
2.944354546e-10
2.960923771e-10
3.055112075e-10
3.210266751e-10
3.208105463e-10
3.207579011e-10
3.242361352e-10
3.366891707e-10
3.466374798e-10
3.4655196e-10
3.4706753e-10
3.525182651e-10
3.678936227e-10
3.720917458e-10
3.721640504e-10
3.733623499e-10
3.809375468e-10
3.990976069e-10
3.973992658e-10
3.976622061e-10
3.996502519e-10
4.094825016e-10
4.302726796e-10
4.225637432e-10
4.230534576e-10
4.259783989e-10
4.381661001e-10
4.61356214e-10
4.475980116e-10
4.483551338e-10
4.52329771e-10
4.669444326e-10
4.923937484e-10
4.725262551e-10
4.736173661e-10
4.789377334e-10
4.96900583e-10
5.272530535e-10
5.001400989e-10
5.100365148e-10
5.814736651e-10
1.078648919e-09
2.800107061e-09
1.355584188e-09
5.181810915e-09
3.787040263e-08
2.650409256e-07
1.284344973e-06
0.002472722246
0.002472351197
0.002472906617
0.00247447692
0.002479849342
0.001574943471
0.001660152701
0.001659481262
0.001638548696
0.001517180824
0.001071398058
0.001195101103
0.001194983821
0.00115749899
0.001006723528
0.0008051460253
0.0009106315542
0.0009139363286
0.0008590461487
0.0007163946611
0.0006223377212
0.0007191341118
0.0007273562508
0.0006788228207
0.0005532546286
0.0005163291863
0.0006035874159
0.0006121889893
0.0005613605184
0.0004658125573
0.0004440803952
0.0005149689142
0.0005208622337
0.0004896038397
0.000424135181
0.0004209542159
0.0004556407274
0.0004611726084
0.0004340365258
0.0004117051355
0.0004099097334
0.0004222507819
0.0004260922772
0.0004200176564
0.0003735893531
0.0003762224677
0.0004127677999
0.0004155906678
0.0003932985696
0.0003486137376
0.0003515060774
0.0003840693773
0.0003877948634
0.0003663892556
0.0003400460678
0.0003414329402
0.0003606243289
0.0003640998891
0.0003460212532
0.0003297018151
0.0003311581743
0.0003450764219
0.0003455477471
0.0003366414173
0.0003234243961
0.0003249969884
0.0003352599383
0.0003367633183
0.0003282715258
0.0003167473171
0.0003187085565
0.0003277748039
0.0003287881247
0.0003211837389
0.0003097456279
0.0003124350965
0.0003213634141
0.0003219805755
0.0003142133894
0.0003025849982
0.000306233884
0.000314990382
0.0003152786933
0.0003072178929
0.0002953653395
0.0003003191814
0.0003086239984
0.0003084722654
0.0003001478085
0.0002881383265
0.0003079329239
0.0003052298292
0.0003020309506
0.0002929689592
0.0002808725559
0.001841947294
0.0005853833433
0.0003442649789
0.0002951794952
0.0002768065717
3.205719401e-08
2.465495745e-07
3.800896161e-06
5.669366056e-05
0.0007591287747
1.810975403e-07
1.234512202e-06
1.532420289e-05
0.0001642963753
0.001301760509
6.396572705e-07
3.957961387e-06
4.082130381e-05
0.0003379459127
0.001868131428
1.790378048e-06
1.013464292e-05
8.935530106e-05
0.0006003580891
0.002543147438
4.415445394e-06
2.312910818e-05
0.0001769690176
0.0009715574461
0.003308022167
1.01289569e-05
4.958199136e-05
0.0003251265048
0.00144686765
0.004115443204
2.18848817e-05
9.921316674e-05
0.0005492164285
0.002008479518
0.004945726228
4.486213595e-05
0.0001860749436
0.0008624502674
0.002642375962
0.005794123111
8.815672123e-05
0.000329622708
0.001272379746
0.003335153121
0.006655053213
0.0001667904355
0.0005519733994
0.001780555337
0.004083491316
0.007528592369
0.0003056581193
0.0008795034199
0.002384108968
0.004877221713
0.008401960969
0.0005617003012
0.001337608516
0.003074315283
0.005718739244
0.009291676509
0.0009692665079
0.001929331823
0.00385019209
0.006609545174
0.01020535851
0.001596293618
0.002681163971
0.004728451169
0.007564386689
0.01116000493
0.002490532189
0.003616961148
0.005726667519
0.008595725151
0.0121609555
0.003632031806
0.004753924662
0.006876068191
0.009734228188
0.01322963567
0.005099936697
0.006167262444
0.008230739168
0.01101580212
0.01439942859
0.006817596574
0.00779968532
0.009757847393
0.01244226595
0.0157132489
0.008702569172
0.00960752996
0.01143501231
0.01393615921
0.01694317969
0.01073664898
0.01150913778
0.01305172231
0.01509624122
0.0174198997
0.0126060385
0.01311272466
0.01409903643
0.01534498679
0.01666331224
0.01330451378
0.01351835926
0.01393137624
0.01443018073
0.01490521755
0.01245179668
0.01249941235
0.01257689004
0.01263840862
0.01263741391
0.01065848659
0.0106361323
0.01057233412
0.01045272129
0.01026438081
0.008593160182
0.008552906403
0.008456340374
0.008301956357
0.008089162337
0.006661596765
0.006623183053
0.00653477531
0.006397850244
0.006215413603
0.005119367751
0.005089103866
0.005019276112
0.004912152298
0.004771119113
0.003892989603
0.003870438672
0.003818624742
0.003739507948
0.003635899068
0.002937052304
0.002920860673
0.002883738887
0.002827156886
0.002753194618
0.002199581195
0.002188264615
0.002162320024
0.002122770469
0.002071071135
0.001634455734
0.00162672515
0.00160897061
0.001581865513
0.001546391959
0.001204346195
0.001199176891
0.001187262987
0.00116902843
0.001145120257
0.0008804282129
0.0008770429874
0.0008692035419
0.0008571657202
0.000841347243
0.0006408194116
0.0006386469731
0.0006335872692
0.0006257893665
0.0006155177763
0.0004682792384
0.0004669067731
0.0004636928176
0.0004587214123
0.0004521564684
0.0003481776292
0.0003473140994
0.0003452838384
0.0003421340378
0.000337964181
0.0002675718322
0.0002670188869
0.0002657189262
0.0002636994657
0.0002610197446
0.0002152743664
0.0002149040489
0.0002140383467
0.0002126951122
0.0002109093745
0.0001822013341
0.0001819354
0.0001813208799
0.0001803711202
0.0001791069943
0.0001615026738
0.0001612960562
0.0001608254627
0.0001601022058
0.0001591391265
0.0001483705021
0.0001481985357
0.0001478121318
0.0001472215657
0.0001464352022
0.0001396501783
0.0001395000023
0.0001391659508
0.0001386575985
0.0001379808328
0.0001333992356
0.000133264326
0.0001329661681
0.0001325137
0.0001319114028
0.0001284932625
0.0001283702855
0.0001280994829
0.0001276891561
0.0001271429415
0.0001243179328
0.0001242050499
0.0001239569324
0.0001235812413
0.0001230810649
0.0001205560479
0.0001204520969
0.0001202237934
0.0001198781818
0.0001194179547
0.0001170520672
0.0001169561806
0.0001167456434
0.0001164269177
0.0001160023846
0.0001137326149
0.0001136440723
0.0001134496642
0.0001131553164
0.0001127631535
0.0001105646499
0.0001104828167
0.0001103031249
0.0001100310089
0.0001096683712
0.0001075323786
0.0001074566763
0.0001072904252
0.0001070386035
0.0001067029314
0.0001046267928
0.0001045566863
0.0001044027057
0.0001041694374
0.0001038584179
0.0001018421409
0.0001017771519
0.0001016343907
0.0001014180802
0.000101129606
9.917260168e-05
9.911228717e-05
9.897977982e-05
9.87789729e-05
9.851111722e-05
9.661254279e-05
9.655649913e-05
9.643336113e-05
9.624672449e-05
9.599772201e-05
9.415633668e-05
9.410419731e-05
9.398962748e-05
9.381595264e-05
9.358419834e-05
9.17988335e-05
9.17502622e-05
9.164352351e-05
9.148169898e-05
9.126572015e-05
8.953559166e-05
8.949028064e-05
8.93907004e-05
8.92397112e-05
8.903816131e-05
8.736237081e-05
8.732003607e-05
8.722699217e-05
8.70859001e-05
8.689753437e-05
8.527399952e-05
8.523438417e-05
8.514731476e-05
8.501527185e-05
8.483896536e-05
8.326316003e-05
8.322603658e-05
8.3144441e-05
8.302068941e-05
8.285543325e-05
8.132075276e-05
8.128593209e-05
8.120939368e-05
8.109330125e-05
8.093825417e-05
7.943710222e-05
7.940442398e-05
7.933258765e-05
7.922361564e-05
7.907806144e-05
7.760546025e-05
7.757479746e-05
7.750738259e-05
7.740510488e-05
7.726847738e-05
7.582271643e-05
7.579394481e-05
7.573067727e-05
7.563467743e-05
7.550641837e-05
7.409088769e-05
7.406389867e-05
7.400454181e-05
7.391446341e-05
7.379410101e-05
7.241280138e-05
7.2387472e-05
7.23317597e-05
7.22472052e-05
7.213421402e-05
7.079650519e-05
7.077271242e-05
7.072037618e-05
7.064093754e-05
7.053477052e-05
6.924147128e-05
6.921907545e-05
6.916981147e-05
6.909503325e-05
6.899508748e-05
6.777106138e-05
6.774994984e-05
6.770351476e-05
6.763303128e-05
6.753882142e-05
6.651071327e-05
6.649064432e-05
6.644650065e-05
6.637949257e-05
6.628992272e-05
0.002766685807
0.003536858759
0.004259697677
0.005198219974
0.006194135696
0.007121858386
0.007986447631
0.008849157798
0.00971124413
0.010565379
0.01139785565
0.01224569667
0.01311407963
0.01401038229
0.01493996878
0.01591212708
0.0169755639
0.01820203176
0.01918417901
0.01902382182
0.01749679076
0.01516260706
0.01258920314
0.01010717019
0.007925372781
0.006078151102
0.004666599706
0.003559582457
0.002698917811
0.002033257736
0.001520548336
0.001127794285
0.0008299627167
0.0006081836498
0.0004475026809
0.0003350184574
0.000259118648
0.0002096231201
0.000178173013
0.0001584060008
0.0001458202496
0.000137440948
0.0001314247734
0.000126698364
0.0001226723364
0.000119041094
0.0001156543812
0.0001124415012
0.0001093708272
0.0001064274359
0.0001036030934
0.000100892736
9.82911266e-05
9.579316967e-05
9.339377269e-05
9.108821789e-05
8.887248126e-05
8.674265706e-05
8.469397224e-05
8.271950127e-05
8.081070321e-05
7.895831694e-05
7.715608659e-05
7.540092034e-05
7.369510714e-05
7.204127988e-05
7.044744693e-05
6.891286555e-05
6.746130187e-05
6.621621119e-05
0.006789788826
0.02430402978
0.003522270605
0.0005949786773
0.0001703049614
0.008057709931
0.02171746681
0.01485628624
0.002261588284
0.0004909969795
0.008923873559
0.02026869515
0.03131946478
0.006097696757
0.00153712607
0.01036334932
0.023556838
0.04707886083
0.01226216073
0.003348471219
0.01168712347
0.02470574747
0.04353905925
0.019240315
0.005110728565
0.01263987953
0.02430134629
0.03822687655
0.02777859869
0.007777745405
0.01337625784
0.02390024325
0.03605133998
0.03736940842
0.01222181558
0.01413775182
0.02422904013
0.03668313402
0.0476662947
0.01853755799
0.01490533757
0.02462250114
0.03650540809
0.04819635028
0.02480932835
0.01563695467
0.02487225401
0.03582746927
0.04657437403
0.03149074894
0.0163286847
0.02510711905
0.03536928986
0.04577091826
0.0388816462
0.01705035043
0.02550678172
0.03541454524
0.04603115785
0.0467136157
0.0178003288
0.02595310915
0.03541614064
0.04558865024
0.04987784275
0.01855872294
0.02634822263
0.03520652042
0.04452371266
0.04957458321
0.01933563239
0.02674668045
0.03502127268
0.04363589186
0.04921613526
0.02012551395
0.02713335593
0.03488933245
0.04303591448
0.04919128759
0.0209944434
0.02764832382
0.03501341667
0.04282350927
0.04894718716
0.0220633998
0.02852634035
0.03575401288
0.04344477118
0.04872783494
0.02262998041
0.02824595883
0.03448874665
0.04176187349
0.04729523055
0.0214388883
0.02471142414
0.0272637121
0.02859737695
0.02743583925
0.01875776749
0.01995768167
0.0201568257
0.01916107951
0.01687334441
0.01559365802
0.01562553898
0.01491285614
0.01349384444
0.01153078754
0.01258426974
0.01213040569
0.01122751735
0.009967882968
0.008491702732
0.009942832412
0.009397336828
0.008587124918
0.007592956829
0.00650943738
0.007740847735
0.007257858705
0.006610863389
0.005860346732
0.005066583272
0.00591990941
0.005540815595
0.005055985237
0.004508318958
0.003937317725
0.0045461213
0.004263538369
0.003907560793
0.003508901147
0.003094536653
0.003472084836
0.003267521912
0.003010482286
0.002722713523
0.002422866166
0.002637353784
0.002492205933
0.002308971956
0.002102931924
0.001887058606
0.001991075378
0.001889883759
0.001760896278
0.001614765293
0.001460512869
0.001492409398
0.00142310537
0.001333521573
0.001231024019
0.001121864427
0.001109558359
0.001062973157
0.001001667316
0.0009306971023
0.0008543702983
0.0008185014887
0.0007878004265
0.0007465279691
0.0006981247611
0.000645532912
0.0006011816302
0.0005813347669
0.0005540239002
0.0005215573936
0.0004859150638
0.0004432909247
0.0004306393395
0.0004128320909
0.0003913846067
0.0003675998037
0.0003324469351
0.0003243854208
0.0003128445711
0.0002987917784
0.0002830611029
0.0002574468436
0.0002521933471
0.0002446360998
0.0002353742348
0.000224926268
0.0002084127167
0.0002048122691
0.0001996993184
0.0001934345773
0.0001863321403
0.0001771886358
0.0001745362392
0.0001708821258
0.0001664386204
0.0001613925913
0.0001575348605
0.0001554249949
0.0001526307025
0.0001492756844
0.0001454707158
0.0001450156164
0.0001432276585
0.0001409464602
0.000138244762
0.000135189509
0.0001366872582
0.0001351067562
0.0001331464468
0.000130850722
0.000128261892
0.0001307186181
0.0001292879277
0.0001275451823
0.0001255193463
0.0001232391911
0.0001260393888
0.0001247288516
0.0001231484784
0.000121318857
0.000119261225
0.0001220599086
0.0001208529365
0.0001194045457
0.0001177306183
0.0001158480029
0.0001184735323
0.0001173592464
0.0001160245892
0.0001144826153
0.0001127474268
0.0001151291436
0.0001140991286
0.0001128658085
0.0001114404067
0.0001098350983
0.0001119556627
0.0001110028214
0.0001098614632
0.0001085413549
0.0001070531982
0.0001089213249
0.0001080391934
0.0001069817831
0.0001057576905
0.0001043764071
0.0001060112607
0.0001051938842
0.0001042133212
0.0001030772151
0.0001017939775
0.0001032174211
0.0001024593543
0.0001015492425
0.0001004938862
9.930077258e-05
0.0001005349689
9.983122972e-05
9.898572771e-05
9.800451377e-05
9.689425195e-05
9.795886813e-05
9.730486256e-05
9.651858048e-05
9.560540767e-05
9.457128494e-05
9.548423197e-05
9.487575943e-05
9.414376241e-05
9.329303977e-05
9.232888406e-05
9.310616624e-05
9.253939187e-05
9.185716198e-05
9.106375865e-05
9.016390585e-05
9.08201182e-05
9.029152576e-05
8.965492784e-05
8.89141461e-05
8.807340391e-05
8.862221262e-05
8.812858137e-05
8.753382095e-05
8.684134907e-05
8.605494649e-05
8.650866676e-05
8.604701134e-05
8.549057509e-05
8.484241774e-05
8.410593272e-05
8.447486986e-05
8.404249315e-05
8.352118348e-05
8.291368416e-05
8.222303881e-05
8.251406401e-05
8.210855996e-05
8.161950587e-05
8.104936606e-05
8.04008798e-05
8.061793924e-05
8.023729875e-05
7.977805012e-05
7.924242922e-05
7.863291663e-05
7.877741007e-05
7.841995276e-05
7.798844969e-05
7.74849502e-05
7.691172963e-05
7.698639224e-05
7.665080644e-05
7.624540222e-05
7.57720563e-05
7.523284481e-05
7.524174714e-05
7.492662982e-05
7.454568811e-05
7.410065836e-05
7.359344579e-05
7.354584357e-05
7.325007287e-05
7.289227226e-05
7.247405043e-05
7.199717063e-05
7.190122013e-05
7.162345704e-05
7.128725082e-05
7.089406891e-05
7.044551073e-05
7.031584509e-05
7.005481226e-05
6.973876572e-05
6.936903436e-05
6.894706093e-05
6.878891911e-05
6.854305926e-05
6.824535007e-05
6.789699987e-05
6.749930981e-05
6.734438675e-05
6.711254197e-05
6.68317981e-05
6.650324715e-05
6.612806862e-05
6.610502614e-05
6.588450847e-05
6.561746418e-05
6.530490419e-05
6.494792686e-05
2.071769915e-05
2.761047035e-06
4.988629511e-07
1.406854324e-07
6.060845546e-08
3.237304887e-08
1.966785844e-08
1.368929394e-08
1.093464857e-08
9.713010709e-09
9.190320273e-09
8.97128569e-09
8.879429705e-09
8.839966181e-09
8.822694679e-09
8.816858147e-09
8.812299213e-09
8.807007213e-09
8.80491797e-09
8.803709762e-09
8.802575412e-09
8.801416941e-09
8.800258859e-09
8.7991515e-09
8.798132783e-09
8.797205675e-09
8.796358113e-09
8.795591039e-09
8.794888621e-09
8.794234768e-09
8.793629193e-09
8.793063388e-09
8.792538671e-09
8.792055316e-09
8.791614671e-09
8.791214947e-09
8.790854921e-09
8.790533982e-09
8.790240544e-09
8.789975868e-09
8.789724287e-09
8.789486228e-09
8.789265258e-09
8.789052e-09
8.788862191e-09
8.788725162e-09
8.788615283e-09
8.78853244e-09
8.788457928e-09
8.788405926e-09
8.788362702e-09
8.788331915e-09
8.788306317e-09
8.788277834e-09
8.787976074e-09
8.785306607e-09
8.767658484e-09
8.683777687e-09
8.385601568e-09
7.997149893e-09
9.749863956e-05
1.461723972e-05
1.958390319e-06
4.085315218e-07
1.489450668e-07
7.561105286e-08
4.614824913e-08
3.220840053e-08
2.532095365e-08
2.193904675e-08
2.031601289e-08
1.955139551e-08
1.919399826e-08
1.90252634e-08
1.894405784e-08
1.890614258e-08
1.88858769e-08
1.887304207e-08
1.886793608e-08
1.886502062e-08
1.88622782e-08
1.885927513e-08
1.885622012e-08
1.885340943e-08
1.885099812e-08
1.884887247e-08
1.884694555e-08
1.884530934e-08
1.884382364e-08
1.884252135e-08
1.884137574e-08
1.884029278e-08
1.883938119e-08
1.883858928e-08
1.883792301e-08
1.883736066e-08
1.883698579e-08
1.883673294e-08
1.883648194e-08
1.883631607e-08
1.883620358e-08
1.883605947e-08
1.883600862e-08
1.88360883e-08
1.883607498e-08
1.883621072e-08
1.883617734e-08
1.883633498e-08
1.883644366e-08
1.883673298e-08
1.883697574e-08
1.883719917e-08
1.883742578e-08
1.883774938e-08
1.883750935e-08
1.883451879e-08
1.881947526e-08
1.877125106e-08
1.869770399e-08
1.868144858e-08
0.0003598259385
4.978523601e-05
4.5412434e-06
7.007215425e-07
2.190884227e-07
1.067969129e-07
6.627784448e-08
4.760874871e-08
3.790605623e-08
3.271275565e-08
2.994361867e-08
2.848719025e-08
2.773111543e-08
2.734015947e-08
2.713655241e-08
2.703006822e-08
2.69772828e-08
2.695478259e-08
2.694605819e-08
2.694133638e-08
2.693686428e-08
2.693191936e-08
2.692688845e-08
2.692222771e-08
2.691814069e-08
2.691458103e-08
2.691142995e-08
2.69087232e-08
2.690635969e-08
2.690434319e-08
2.690262337e-08
2.690116945e-08
2.690005285e-08
2.689916351e-08
2.689852118e-08
2.689810176e-08
2.689788599e-08
2.689778649e-08
2.689773032e-08
2.689779576e-08
2.689798436e-08
2.689826025e-08
2.689866464e-08
2.68992575e-08
2.689979287e-08
2.690048074e-08
2.690100739e-08
2.690177046e-08
2.690243475e-08
2.690330183e-08
2.690418957e-08
2.690517269e-08
2.690597196e-08
2.690709287e-08
2.690785458e-08
2.690846518e-08
2.690995309e-08
2.693030381e-08
2.705036441e-08
2.722519496e-08
0.001163814091
0.0002673679276
2.710125797e-05
2.09610863e-06
3.791903213e-07
1.469884066e-07
8.527679159e-08
6.017170414e-08
4.756035236e-08
4.072168366e-08
3.688972978e-08
3.472727436e-08
3.351244031e-08
3.283491911e-08
3.245909556e-08
3.225156795e-08
3.215049729e-08
3.211479978e-08
3.210302949e-08
3.209901837e-08
3.209617871e-08
3.209292787e-08
3.208944043e-08
3.208615895e-08
3.208333414e-08
3.208095895e-08
3.207896432e-08
3.207735147e-08
3.207605972e-08
3.207507987e-08
3.207436318e-08
3.207389661e-08
3.207374059e-08
3.207382835e-08
3.207410823e-08
3.20746102e-08
3.20752766e-08
3.207600623e-08
3.207674454e-08
3.207756865e-08
3.207848916e-08
3.207947635e-08
3.208055392e-08
3.208177687e-08
3.208302322e-08
3.208436185e-08
3.208561079e-08
3.208698818e-08
3.208826524e-08
3.208972768e-08
3.209117466e-08
3.209275639e-08
3.209412823e-08
3.209590422e-08
3.209778805e-08
3.210217379e-08
3.211606241e-08
3.21705686e-08
3.23349744e-08
3.251745706e-08
0.002138500596
0.0007173949448
0.0001453211237
1.350591937e-05
1.4332987e-06
3.30900894e-07
1.391249236e-07
8.191084273e-08
5.85817214e-08
4.749787491e-08
4.177603872e-08
3.866673693e-08
3.692867715e-08
3.593523637e-08
3.536304404e-08
3.503515067e-08
3.487216225e-08
3.481405588e-08
3.479515839e-08
3.479113966e-08
3.479118181e-08
3.479171732e-08
3.479210295e-08
3.479245174e-08
3.479292766e-08
3.479354955e-08
3.479429961e-08
3.479518222e-08
3.479617502e-08
3.479727853e-08
3.479846967e-08
3.479974889e-08
3.480115156e-08
3.48026576e-08
3.480422782e-08
3.480588736e-08
3.480759765e-08
3.480929683e-08
3.481095659e-08
3.481263051e-08
3.481432607e-08
3.481601424e-08
3.48177162e-08
3.481947002e-08
3.482122081e-08
3.482299346e-08
3.48247196e-08
3.482646912e-08
3.482813676e-08
3.482989994e-08
3.483162871e-08
3.483344891e-08
3.483512186e-08
3.483715795e-08
3.483966849e-08
3.484548632e-08
3.486188574e-08
3.491308312e-08
3.503448694e-08
3.515247539e-08
0.003087746674
0.001392309922
0.0004621174364
8.479057453e-05
8.013332235e-06
1.118697873e-06
3.062699918e-07
1.330903178e-07
7.765481706e-08
5.571270664e-08
4.598207403e-08
4.13054407e-08
3.888906619e-08
3.755834629e-08
3.679203166e-08
3.634351324e-08
3.611046492e-08
3.601705215e-08
3.598149081e-08
3.597182847e-08
3.59718779e-08
3.597490599e-08
3.597861398e-08
3.598233026e-08
3.598592315e-08
3.598935708e-08
3.599264198e-08
3.599580391e-08
3.599884573e-08
3.600178569e-08
3.600462683e-08
3.600738343e-08
3.601008017e-08
3.601272377e-08
3.601530288e-08
3.601783556e-08
3.602031082e-08
3.602271095e-08
3.602503015e-08
3.602729878e-08
3.602952247e-08
3.603168249e-08
3.603379429e-08
3.603587114e-08
3.603788864e-08
3.603987316e-08
3.604181147e-08
3.6043725e-08
3.604556362e-08
3.604740225e-08
3.604918494e-08
3.605099969e-08
3.605274089e-08
3.60547663e-08
3.605742039e-08
3.606292727e-08
3.607644226e-08
3.611135582e-08
3.617992175e-08
3.623998578e-08
0.003876250394
0.002008224734
0.0009302037841
0.0003105243281
4.877045807e-05
4.780124177e-06
8.272772083e-07
2.581083147e-07
1.175391177e-07
7.014124008e-08
5.171246326e-08
4.391416996e-08
4.033463107e-08
3.853135475e-08
3.753929592e-08
3.696076082e-08
3.664780021e-08
3.65061637e-08
3.644282294e-08
3.641948253e-08
3.641445206e-08
3.641695744e-08
3.642217756e-08
3.642808976e-08
3.643391455e-08
3.643940315e-08
3.644451583e-08
3.644928521e-08
3.645374911e-08
3.645794294e-08
3.646189066e-08
3.646562092e-08
3.646916403e-08
3.647253956e-08
3.647575752e-08
3.647883703e-08
3.648178483e-08
3.648460543e-08
3.64873059e-08
3.648990388e-08
3.649240725e-08
3.64948119e-08
3.649713004e-08
3.649936819e-08
3.650151963e-08
3.65035983e-08
3.650560452e-08
3.650755393e-08
3.65094341e-08
3.651126581e-08
3.651303415e-08
3.651479106e-08
3.651652521e-08
3.651849774e-08
3.652113597e-08
3.65260206e-08
3.653629926e-08
3.655803067e-08
3.659359854e-08
3.662139751e-08
0.005006222544
0.002551120835
0.001454524644
0.0007053650178
0.0002095047841
2.453063544e-05
2.747680414e-06
5.945892684e-07
2.065953358e-07
9.88181723e-08
6.175831924e-08
4.771218878e-08
4.197364687e-08
3.938595737e-08
3.807061905e-08
3.733036882e-08
3.692315196e-08
3.672237315e-08
3.662175628e-08
3.657677368e-08
3.656084418e-08
3.655904849e-08
3.656351007e-08
3.657027145e-08
3.657747863e-08
3.658438624e-08
3.659078202e-08
3.659666502e-08
3.66020951e-08
3.660712686e-08
3.661180409e-08
3.661616923e-08
3.662025871e-08
3.662410455e-08
3.662773018e-08
3.663115926e-08
3.663440926e-08
3.663749434e-08
3.664042813e-08
3.664322506e-08
3.664589571e-08
3.664844527e-08
3.665088416e-08
3.665322073e-08
3.665545924e-08
3.665760624e-08
3.66596631e-08
3.666163923e-08
3.666353783e-08
3.666536929e-08
3.666713887e-08
3.666888366e-08
3.667064507e-08
3.667265107e-08
3.6675362e-08
3.667997952e-08
3.668844281e-08
3.670328636e-08
3.672370467e-08
3.673737019e-08
0.006879531791
0.00298181706
0.0018799056
0.001133161787
0.0005428493518
0.0001142896345
1.065551146e-05
1.540089725e-06
4.0404108e-07
1.53752794e-07
7.902049661e-08
5.358035377e-08
4.421545746e-08
4.040686366e-08
3.862569083e-08
3.766877314e-08
3.714073513e-08
3.686537458e-08
3.671711668e-08
3.664267636e-08
3.660987883e-08
3.659958766e-08
3.660066712e-08
3.66068054e-08
3.66146259e-08
3.662253284e-08
3.662993084e-08
3.663669922e-08
3.664288641e-08
3.664856755e-08
3.665380719e-08
3.665865844e-08
3.666316716e-08
3.666737408e-08
3.667131273e-08
3.667501323e-08
3.667849937e-08
3.668179163e-08
3.668490739e-08
3.668786225e-08
3.669066948e-08
3.66933393e-08
3.669588268e-08
3.669830897e-08
3.670062599e-08
3.670284124e-08
3.670495933e-08
3.670698699e-08
3.670892929e-08
3.671079535e-08
3.671259905e-08
3.671438048e-08
3.67162157e-08
3.671834099e-08
3.672125361e-08
3.672596906e-08
3.673382274e-08
3.674591323e-08
3.676048503e-08
3.676850277e-08
0.009940149107
0.003489910165
0.002257671162
0.001511851369
0.0008983382001
0.0003326720438
4.250620275e-05
4.168826501e-06
8.059446032e-07
2.465994513e-07
1.050748063e-07
6.179260636e-08
4.720235344e-08
4.172682509e-08
3.932505298e-08
3.808075484e-08
3.73925235e-08
3.701899343e-08
3.680815762e-08
3.669422575e-08
3.663752619e-08
3.661384088e-08
3.660834431e-08
3.661199806e-08
3.661949114e-08
3.662799027e-08
3.663623067e-08
3.66438091e-08
3.665069751e-08
3.665697633e-08
3.666273e-08
3.666802607e-08
3.667292013e-08
3.667746043e-08
3.668168892e-08
3.668564184e-08
3.6689349e-08
3.669283579e-08
3.669612329e-08
3.669923001e-08
3.670217176e-08
3.670496185e-08
3.670761249e-08
3.671013435e-08
3.671253652e-08
3.671482759e-08
3.671701438e-08
3.671910468e-08
3.672110545e-08
3.672302677e-08
3.672488711e-08
3.672673548e-08
3.6728677e-08
3.673097959e-08
3.673417843e-08
3.673918908e-08
3.67470369e-08
3.675820116e-08
3.677056865e-08
3.677603498e-08
0.01439801869
0.004437247082
0.002610900463
0.0018971173
0.00126215642
0.0006197079463
0.0001265945571
1.252464642e-05
1.753481472e-06
4.149228787e-07
1.441415341e-07
7.263640371e-08
5.092209879e-08
4.337598594e-08
4.022104367e-08
3.861831705e-08
3.772365603e-08
3.722145129e-08
3.692777885e-08
3.67608511e-08
3.667113194e-08
3.662786163e-08
3.661168844e-08
3.661033737e-08
3.66161428e-08
3.662462943e-08
3.66335151e-08
3.664187448e-08
3.664947901e-08
3.665636907e-08
3.666264314e-08
3.666838771e-08
3.667367036e-08
3.667854746e-08
3.668306809e-08
3.668727497e-08
3.669120409e-08
3.669488579e-08
3.669834545e-08
3.670160477e-08
3.670468234e-08
3.670759394e-08
3.671035342e-08
3.671297302e-08
3.67154631e-08
3.671783355e-08
3.672009244e-08
3.672224864e-08
3.672431148e-08
3.672629456e-08
3.672822252e-08
3.6730157e-08
3.673223067e-08
3.673474814e-08
3.673827201e-08
3.674364446e-08
3.67516866e-08
3.676252924e-08
3.677386286e-08
3.677773871e-08
0.01996906136
0.006059129106
0.002977629702
0.002312430672
0.00163780003
0.0009204192988
0.0002750987902
2.993829465e-05
3.538464517e-06
6.580680787e-07
1.898227443e-07
8.397541163e-08
5.484076896e-08
4.5253583e-08
4.131137585e-08
3.929894148e-08
3.815446335e-08
3.749121882e-08
3.709159346e-08
3.685561699e-08
3.672181626e-08
3.665138209e-08
3.661940996e-08
3.660973897e-08
3.661190263e-08
3.661939224e-08
3.662853811e-08
3.663759244e-08
3.664593427e-08
3.66534732e-08
3.666029552e-08
3.666650727e-08
3.667219317e-08
3.667741974e-08
3.66822431e-08
3.668671245e-08
3.669087005e-08
3.669475168e-08
3.669838736e-08
3.670180236e-08
3.67050182e-08
3.670805304e-08
3.671092262e-08
3.671364087e-08
3.671621971e-08
3.671867058e-08
3.672100278e-08
3.672322653e-08
3.672535324e-08
3.672740078e-08
3.672940242e-08
3.673143591e-08
3.673366293e-08
3.673642078e-08
3.674027979e-08
3.674601214e-08
3.675427053e-08
3.676493131e-08
3.677555611e-08
3.677804757e-08
0.02570930457
0.008410328059
0.003530624294
0.002840246702
0.002090100492
0.00125222676
0.0004618048683
6.3286423e-05
6.680866375e-06
1.000149601e-06
2.362517277e-07
9.369529171e-08
5.849809943e-08
4.727416318e-08
4.257804532e-08
4.011790761e-08
3.868582754e-08
3.783268758e-08
3.730534325e-08
3.69842219e-08
3.679474156e-08
3.668891528e-08
3.66353809e-08
3.661345702e-08
3.660944993e-08
3.661449039e-08
3.662320266e-08
3.66327093e-08
3.66417552e-08
3.664997405e-08
3.665737806e-08
3.666407967e-08
3.667018452e-08
3.667577346e-08
3.668091091e-08
3.668565238e-08
3.669004627e-08
3.669413393e-08
3.669795016e-08
3.670152415e-08
3.670488049e-08
3.670804e-08
3.671102053e-08
3.671383792e-08
3.67165059e-08
3.671903733e-08
3.672144289e-08
3.672373445e-08
3.672592597e-08
3.672804107e-08
3.673012348e-08
3.673226802e-08
3.673466478e-08
3.673767748e-08
3.674186691e-08
3.674793013e-08
3.67563663e-08
3.6766845e-08
3.677683869e-08
3.677788237e-08
0.03131136492
0.01152968662
0.004443325793
0.00346821671
0.002646998201
0.001608118407
0.0006594871867
0.0001302767464
1.230662015e-05
1.58339844e-06
3.014618434e-07
1.052181107e-07
6.270838706e-08
4.962453101e-08
4.4053455e-08
4.107445231e-08
3.931260817e-08
3.824211151e-08
3.756761007e-08
3.714701221e-08
3.68912868e-08
3.674228026e-08
3.666153637e-08
3.66233043e-08
3.661030026e-08
3.66110648e-08
3.661831123e-08
3.662779644e-08
3.663739413e-08
3.664628032e-08
3.665429017e-08
3.666150344e-08
3.666804124e-08
3.667400253e-08
3.667946259e-08
3.668448358e-08
3.668911969e-08
3.669341786e-08
3.66974178e-08
3.670115286e-08
3.670465098e-08
3.670793591e-08
3.671102786e-08
3.671394466e-08
3.671670179e-08
3.671931344e-08
3.672179207e-08
3.672415159e-08
3.672640927e-08
3.672859603e-08
3.673076754e-08
3.673303583e-08
3.673561659e-08
3.673889123e-08
3.674339955e-08
3.674975771e-08
3.675832117e-08
3.67685891e-08
3.677796369e-08
3.6777451e-08
0.03704428946
0.01541127441
0.005832923587
0.004264667735
0.003274871695
0.001913989841
0.0008193574685
0.0002161847138
2.336806994e-05
2.665856832e-06
3.993382637e-07
1.201741706e-07
6.803653329e-08
5.250646597e-08
4.580521798e-08
4.218768601e-08
4.0037956e-08
3.871696087e-08
3.787555306e-08
3.734210456e-08
3.701046091e-08
3.681138178e-08
3.669844386e-08
3.664022297e-08
3.661548887e-08
3.661001907e-08
3.661452112e-08
3.662326856e-08
3.663309624e-08
3.664254816e-08
3.66511527e-08
3.665888786e-08
3.666586704e-08
3.667220577e-08
3.667799273e-08
3.66832974e-08
3.668817926e-08
3.66926904e-08
3.669687547e-08
3.67007722e-08
3.670441222e-08
3.670782233e-08
3.671102533e-08
3.671404105e-08
3.671688666e-08
3.671957783e-08
3.672212915e-08
3.672455717e-08
3.672688352e-08
3.672914753e-08
3.673141785e-08
3.673382363e-08
3.673660137e-08
3.674013981e-08
3.674495059e-08
3.675156649e-08
3.6760209e-08
3.677023933e-08
3.677900761e-08
3.677698731e-08
0.04192798409
0.01899389326
0.007398459592
0.005514254673
0.003845998422
0.002043588299
0.0008759325798
0.0002832465274
4.20615523e-05