/*--------------------------------*- C++ -*----------------------------------*\
  =========                 |
  \\      /  F ield         | OpenFOAM: The Open Source CFD Toolbox
   \\    /   O peration     | Website:  https://openfoam.org
    \\  /    A nd           | Version:  10
     \\/     M anipulation  |
\*---------------------------------------------------------------------------*/
FoamFile
{
    format      ascii;
    class       volScalarField;
    location    "0.02499901733";
    object      ddt0(rho,H2);
}
// * * * * * * * * * * * * * * * * * * * * * * * * * * * * * * * * * * * * * //

dimensions      [1 -3 -1 0 0 0 0];

internalField   nonuniform List<scalar> 
5170
(
4.435515707e-10
4.453059819e-10
4.463442164e-10
4.511190545e-10
-2.773870172e-12
4.038283883e-10
4.056365609e-10
4.072742225e-10
4.158983882e-10
4.497157159e-10
3.781388179e-10
3.797579754e-10
3.816369709e-10
3.853209872e-10
4.119106335e-10
3.690663907e-10
3.706866596e-10
3.726781188e-10
3.750652215e-10
3.856411516e-10
3.639532656e-10
3.656500957e-10
3.67532005e-10
3.70037863e-10
3.761690148e-10
3.596147224e-10
3.618362654e-10
3.640092171e-10
3.650823466e-10
3.706286311e-10
3.546087675e-10
3.56849987e-10
3.595673318e-10
3.601918469e-10
3.654241646e-10
3.49671471e-10
3.517139833e-10
3.536858978e-10
3.560418984e-10
3.602123175e-10
3.449465616e-10
3.472027908e-10
3.490188321e-10
3.510513451e-10
3.550613109e-10
3.403996623e-10
3.429389096e-10
3.465893511e-10
3.459930508e-10
3.499529121e-10
3.376328682e-10
3.396500671e-10
3.425448989e-10
3.428094194e-10
3.466619253e-10
3.370454714e-10
3.384568796e-10
3.382428155e-10
3.413611916e-10
3.458034931e-10
3.3672203e-10
3.384417871e-10
3.37591911e-10
3.407412772e-10
3.462639378e-10
3.376035939e-10
3.39548173e-10
3.400645661e-10
3.414905959e-10
3.482217285e-10
3.398967791e-10
3.417671595e-10
3.434146336e-10
3.439593048e-10
3.515495121e-10
3.435197891e-10
3.451634713e-10
3.468158089e-10
3.478865708e-10
3.553604395e-10
3.478884407e-10
3.489866367e-10
3.501644016e-10
3.524762545e-10
3.593905685e-10
3.518584218e-10
3.530771229e-10
3.532861653e-10
3.562068372e-10
3.644049566e-10
3.565337939e-10
3.629219023e-10
3.760518883e-10
4.129531508e-10
7.851642167e-10
7.899690725e-10
2.989208414e-09
1.20793925e-08
1.321945472e-08
-2.176245137e-08
-0.0002553120911
-0.0002818811232
-0.0002668860778
-0.0002826487963
-0.0001841628031
-0.0005106442783
0.0002834626352
0.000256419083
0.0002457706609
-0.0005638800332
7.313078217e-05
1.585600615e-05
5.396690051e-05
-0.0001269526155
-5.838843946e-06
-0.0002944075416
4.549937613e-05
6.097543391e-05
-0.0001016784166
0.0001236460335
0.0001817797166
0.0001382861856
0.0001586532907
-0.0001482334213
-0.0001379175454
9.38517936e-05
-9.907423074e-05
-9.057186622e-05
-0.0001437094506
-9.295238177e-05
-9.471420995e-05
0.000171702976
0.0002506549075
-4.945787678e-05
-0.0001495220647
0.0001629492896
-9.128202378e-05
-5.695772431e-05
9.551942839e-05
6.589517258e-05
7.307873987e-05
-0.0001140769746
-0.0001105049137
6.526688272e-05
6.786062856e-05
6.367376575e-05
6.181381234e-05
8.310421037e-05
7.631268223e-05
6.902914171e-05
7.189908751e-05
6.751965287e-05
7.690487154e-05
6.597933079e-05
-1.103171397e-06
2.552270594e-06
6.00770923e-05
6.116179486e-05
6.704877862e-05
-1.30799873e-05
-8.234209114e-06
1.609084726e-05
6.207053879e-05
-6.843039398e-06
-3.271185063e-05
-3.109730182e-05
-2.541888725e-06
-8.974503922e-06
-2.047705685e-05
-3.586405941e-05
-3.077176463e-05
-2.359315805e-05
-1.867678725e-05
-3.249434621e-05
-3.523509477e-05
-3.560807214e-05
-2.941002242e-05
-3.185431292e-05
-3.010134307e-05
-3.653800671e-05
-3.502234973e-05
-3.460990489e-05
-3.320360954e-05
-3.094592747e-05
-3.60493894e-05
-3.421965888e-05
-3.516209354e-05
-3.396779704e-05
-3.35752587e-05
-3.378956833e-05
-3.102666438e-05
-3.255577703e-05
-3.533316109e-05
-3.747212346e-05
-3.020704651e-05
-0.0001450157128
6.830544417e-05
-2.410444807e-05
-4.312869379e-05
3.463581526e-05
1.408480919e-08
5.62766566e-08
4.043928695e-07
-8.012556502e-06
-0.0003357562918
2.195568887e-09
7.483865139e-07
4.549744089e-06
-5.273216462e-05
-4.541125104e-05
2.162200334e-08
4.163340342e-07
2.044033265e-05
3.757269386e-05
0.000401279308
3.908369826e-07
7.837843622e-06
7.062772222e-05
0.0001477753652
0.0001901965948
-3.013275397e-06
-2.595935469e-05
-0.0001233530726
-0.0001313191781
-0.0003888489744
-4.760840315e-06
-6.396354721e-05
-0.0003501350079
-0.0003918146751
-0.0005041473494
1.359773799e-05
4.167540725e-05
-0.0001079299345
-0.0001907509479
-0.0008363628286
6.135941868e-05
0.0002088786418
0.0003900797846
0.000154749409
-0.0004133482743
0.0001159939005
0.000369789688
0.0006555921331
0.0005379315988
0.0002642895209
0.0001630277626
0.0004465798886
0.0006789389995
0.0003933260791
6.909235886e-05
0.000116104704
0.0001376313237
0.0002511939708
0.0003226616556
0.0002072586975
-0.0001757532181
7.487553399e-05
0.0003256846774
0.0006896413774
0.00065862046
0.0007949999387
0.0004431237489
0.0002446873584
0.000279489147
0.0009995546127
-0.0009364653682
-0.0004959353352
8.632980644e-05
0.0004503438578
8.125749122e-05
-0.0004608450612
-0.0001879450177
-9.19069352e-05
1.96162918e-05
-0.0003240681552
-0.001760769455
-0.001743780474
-0.001080088913
5.238641894e-05
0.0009006385237
-0.001479543969
-0.001003877953
-0.0004081156959
0.0001994579124
0.001182543039
0.001857777566
0.002250897696
0.003214637271
0.004649484067
0.007306388808
0.005094168453
0.005637448213
0.007799401834
0.01183095757
0.01783148477
0.008803886468
0.01066517471
0.01502432538
0.02195470343
0.03054707126
0.01559688552
0.01906522429
0.02475231359
0.03133786257
0.03874639382
0.02806467653
0.0298418675
0.03290926666
0.03688768251
0.04100311934
0.03551594923
0.03603459939
0.03741106231
0.03928246767
0.04107956106
0.03815832942
0.03827142928
0.03870902287
0.03941881454
0.03965018201
0.03726407663
0.03726807675
0.03731722423
0.03728298368
0.03713428605
0.03414096735
0.03418933726
0.0340426591
0.03390181657
0.03357004892
0.03054224984
0.03040701874
0.03027816404
0.03004643142
0.02958696192
0.02628779652
0.02632420731
0.02610575933
0.02584768751
0.02546764095
0.02213043473
0.02212712539
0.02192904199
0.0216723873
0.02135941944
0.0182311731
0.01814206758
0.0180068203
0.01778189024
0.01747808069
0.01463630223
0.01460959256
0.01447526949
0.01429752219
0.01403668655
0.01154720161
0.01150435011
0.01141475759
0.01125849362
0.01109486379
0.008872274731
0.008856312306
0.008785751102
0.008668077104
0.008536151511
0.006627081508
0.006608998046
0.006553849142
0.006474436832
0.006373307298
0.004760577019
0.004741916895
0.00470768798
0.004653747519
0.004579258214
0.003263450429
0.003256704469
0.00323480366
0.003195172617
0.003153577635
0.002136706845
0.002129296685
0.002116669056
0.002093993437
0.002066236356
0.001328944312
0.001325210043
0.001318217577
0.001304537702
0.001289382488
0.0007838049313
0.0007847576726
0.000780096052
0.0007725478072
0.0007619029634
0.0004418556218
0.0004398190377
0.0004373679375
0.0004350905512
0.0004283302793
0.0002348382158
0.0002336395603
0.0002326732438
0.0002313602752
0.000228298408
0.0001171323651
0.0001171845181
0.0001168965109
0.000115809588
0.0001156590613
5.531213149e-05
5.491920025e-05
5.485588589e-05
5.453035311e-05
5.448490769e-05
2.381968824e-05
2.379693704e-05
2.406940896e-05
2.342546046e-05
2.436906898e-05
9.049259675e-06
9.414165628e-06
9.35844682e-06
9.209681341e-06
8.872454376e-06
3.029327651e-06
3.075771504e-06
2.96217403e-06
3.010987229e-06
2.936431587e-06
5.853507757e-07
6.04122308e-07
5.281971414e-07
6.667554959e-07
4.346635337e-07
2.194459138e-08
-1.956051276e-07
-2.8604417e-07
-1.544273205e-07
3.31373933e-08
-1.286291649e-07
-3.694171033e-07
-3.405902517e-07
-3.217775946e-07
-1.085094957e-07
-1.652851526e-07
-2.639883929e-07
-2.676218154e-07
-2.095274733e-07
-2.024760607e-08
-1.639677913e-07
-7.148160342e-08
-1.330081998e-07
-1.795545133e-07
6.77194788e-08
-9.414495042e-08
-1.76619397e-08
4.001572412e-08
-1.28216372e-07
1.019115246e-07
3.880791556e-07
-4.822177569e-08
-6.381678832e-08
1.759185781e-07
-2.351487444e-07
3.23609133e-08
1.196758536e-07
7.617152162e-08
6.590766256e-08
3.276957419e-07
2.819355197e-07
2.917791236e-09
2.382164467e-07
2.845269099e-08
2.126446066e-07
2.164569647e-07
1.490280982e-07
1.150015555e-07
1.94216495e-07
1.545711304e-07
7.271638812e-08
2.130328791e-07
1.609187049e-07
2.128142447e-07
-1.504967655e-07
6.270071096e-08
1.84158061e-07
1.856473566e-07
1.902174055e-07
-1.168051145e-07
2.520818301e-07
5.160981824e-08
2.378205207e-07
1.236961028e-07
-9.244076102e-08
1.932547716e-07
1.317870626e-07
1.131543563e-07
2.121359481e-07
-1.078327202e-07
1.569660278e-07
1.534072649e-07
1.880493384e-07
1.812651888e-07
-1.110966032e-07
2.563205661e-07
1.613466561e-07
2.728499836e-07
2.478682577e-07
-1.359453961e-08
3.056200618e-07
3.034246487e-07
3.161611831e-07
3.419425583e-07
1.159955883e-07
4.140130465e-07
4.118103689e-07
3.642001361e-07
4.806596712e-07
1.230938511e-07
4.595727991e-07
4.96478942e-07
4.339337366e-07
4.958704562e-07
4.352910332e-07
5.116149738e-07
4.855457546e-07
4.897850476e-07
4.943560816e-07
4.615725088e-07
4.588104643e-07
4.618745902e-07
4.721218609e-07
4.608517978e-07
4.115718623e-07
3.777672328e-07
3.937882715e-07
4.124443902e-07
4.033067404e-07
3.635977195e-07
3.463947527e-07
3.195586578e-07
3.406041768e-07
3.396910035e-07
3.360293951e-07
3.042206566e-07
2.939262713e-07
2.999129705e-07
2.980696874e-07
3.214158909e-07
0.001643326308
-0.003278892049
-0.004424981533
-0.003182684645
-7.647671e-05
-0.0006286872316
-0.0007256725068
-0.0005827813921
0.0001404343902
0.000309421511
0.0001699854888
0.0006959652295
0.0002581967219
0.001430735957
-0.0005932202993
0.003652160869
0.0009315243449
0.008785331848
0.02276775709
0.03708560113
0.04201779929
0.04339142316
0.0422581811
0.04070282421
0.03722445237
0.03343014583
0.02957693817
0.0251865276
0.02099851841
0.0172562639
0.01389636062
0.01084890956
0.008389455694
0.006286377651
0.004532127947
0.003108196012
0.00203982815
0.001271885923
0.0007642343007
0.0004301184697
0.0002292829923
0.0001122585868
5.271570084e-05
2.088824801e-05
1.070727303e-05
3.378183153e-06
1.110134932e-06
-9.536403859e-07
-1.031582482e-06
-1.149927327e-06
-7.849379529e-07
-3.963004318e-07
8.799996658e-07
-8.276405933e-07
-6.069126239e-08
4.849242063e-08
1.284549053e-06
1.182415418e-06
1.097965597e-06
9.763228249e-07
1.202783044e-06
1.070700037e-06
1.012772645e-06
1.335570946e-06
5.574622573e-07
5.968282844e-07
6.484986928e-07
5.156265748e-07
3.164021046e-07
2.300665707e-07
0.0004734767766
0.001491110017
-0.0005928539638
8.107843985e-06
-7.768562203e-06
-0.001572027405
0.003986005186
-0.0006381929035
0.0006189170062
2.25004013e-05
-0.002122509085
0.002347987679
-0.0003927780245
0.001259328793
5.083358115e-05
-0.0009440866951
-0.001661843866
0.004935597428
0.001396571705
3.206286958e-06
-0.0004265915863
0.0002812930999
0.00399123644
-0.00300506238
-0.0002419757571
-0.0008832988517
0.0006219611413
-0.000828696421
0.003253364491
0.0009997570987
-0.00102459395
-0.002187723598
-0.003301628497
0.007179988952
0.003322447027
-0.0007502924257
0.0001133000091
-0.0004324702961
0.006782300145
0.002686742624
-0.0002607035593
0.0003370631004
-0.0006373603387
0.001234175659
0.0008306598207
0.0004312658057
-0.0004167578964
-0.0008391069842
5.05623135e-05
-0.00104082601
2.110521401e-05
0.001205385054
0.0009201880291
-0.000844038576
-0.001616100037
0.0005816846177
0.0006392015234
0.0001186033416
0.0001350388436
-0.003849645002
0.001798257044
0.0002929936878
-0.0002686211654
0.003774423379
-0.004308299873
-0.0003017712263
0.0004780662411
0.002211759508
0.0009845733387
0.0006606265614
-0.001072894513
0.0002066998241
0.002162004503
0.0006712001714
-0.001368318538
0.002115684099
0.001045421785
0.0002774305773
0.004902765424
0.00792139545
0.003323937978
0.006140534231
0.008873616634
0.01158125234
0.02641303427
0.01229323051
0.01775185458
0.02462657109
0.03512914759
0.07318517536
0.03218653295
0.05556502746
0.103270186
0.2013823585
0.2894325344
0.04599265621
0.06158634112
0.07924289664
0.09425053837
0.08591858423
0.04913897361
0.05673516713
0.06125489121
0.0590336439
0.04585413525
0.04681123001
0.05021481315
0.05106963512
0.04775905439
0.04020787574
0.04384168218
0.04481271278
0.04394071061
0.04132592852
0.03717263484
0.04045446729
0.04030748884
0.03908692429
0.03691212272
0.03392573536
0.0370358994
0.03641076032
0.03506035284
0.03312140003
0.03061652279
0.03312200037
0.03231081581
0.03097199697
0.02918132889
0.02699567114
0.02908696014
0.0282616231
0.02699144332
0.02536948727
0.02345522531
0.02491581038
0.02411638208
0.02296878437
0.02153508595
0.01988983513
0.02082752418
0.02010783428
0.01910780643
0.01788711057
0.01650584116
0.01703814479
0.01642811189
0.01559415475
0.01458532221
0.01346294366
0.0136802825
0.01318965306
0.01251672877
0.01171318035
0.01082383351
0.01079481753
0.01040347814
0.009881478799
0.009259335416
0.008570811254
0.008318936232
0.008031940481
0.007636614389
0.007169308795
0.006646696472
0.006225831529
0.006020055171
0.005736068286
0.005390136006
0.005007487675
0.004486055403
0.004348568296
0.004149120565
0.003906073043
0.003632890549
0.003094961528
0.003006143373
0.002874465947
0.002709712498
0.002523959269
0.002035155045
0.001982580984
0.001899143868
0.001794006685
0.001672799144
0.001273808094
0.001244549703
0.00119496187
0.001130687697
0.00105604291
0.0007571094512
0.0007427684646
0.0007149888209
0.0006776664301
0.0006340066267
0.00042765151
0.0004208805288
0.000406144151
0.0003856821655
0.0003613822067
0.0002287560594
0.0002259376044
0.0002184917837
0.0002080236468
0.0001951011648
0.000115707339
0.0001144535925
0.0001110026699
0.0001058303478
9.947337353e-05
5.478135856e-05
5.436735567e-05
5.28875159e-05
5.052351051e-05
4.752720382e-05
2.41827772e-05
2.391192227e-05
2.332683572e-05
2.237944251e-05
2.099608446e-05
9.333635919e-06
9.491349381e-06
9.303650826e-06
8.910053477e-06
8.37824518e-06
3.094331964e-06
3.163207941e-06
3.148965786e-06
2.952540324e-06
2.828462485e-06
6.144045517e-07
6.64517711e-07
7.078768861e-07
6.138186999e-07
6.030264736e-07
-8.182462418e-08
-1.60941132e-07
-9.977488651e-08
-1.693767251e-07
-1.227787964e-07
-2.391767872e-07
-3.066829551e-07
-2.861263598e-07
-2.92825842e-07
-2.955831936e-07
-1.633735053e-07
-2.252264997e-07
-2.628774783e-07
-2.149044699e-07
-2.587291874e-07
-6.588242707e-08
-1.469112916e-07
-1.351731625e-07
-1.446721298e-07
-1.517179559e-07
-7.369433532e-09
-4.933388496e-08
-4.529881086e-08
-6.818549093e-08
-6.245511129e-08
-3.489143614e-08
1.490725357e-08
3.16152926e-08
-1.284117061e-08
5.036628808e-09
1.546921604e-07
6.627556243e-08
6.803430152e-08
4.89615611e-08
4.532127526e-08
1.283370311e-07
1.086764206e-07
1.067933206e-07
8.778947815e-08
8.493917734e-08
1.593581152e-07
1.348111119e-07
1.403074681e-07
1.164559951e-07
1.166580987e-07
6.846266453e-08
1.651950904e-07
1.453791402e-07
1.442511991e-07
1.336015513e-07
7.247980075e-08
1.629830475e-07
1.545264134e-07
1.436479438e-07
1.417767733e-07
6.976970468e-08
1.550193914e-07
1.413112056e-07
1.498075266e-07
1.338145758e-07
8.259033844e-08
1.469081568e-07
1.471903266e-07
1.503984196e-07
1.428631551e-07
8.600481876e-08
1.69012827e-07
1.777824015e-07
1.74037842e-07
1.747807873e-07
1.567862425e-07
2.348689931e-07
2.338457306e-07
2.300049419e-07
2.39219518e-07
2.536861311e-07
3.166545785e-07
3.188217985e-07
3.094331202e-07
3.218303005e-07
3.270381179e-07
4.038825655e-07
3.99417592e-07
3.999238887e-07
3.968232482e-07
4.585417464e-07
4.653646692e-07
4.615918347e-07
4.585537994e-07
4.545015708e-07
4.794043224e-07
4.86136527e-07
4.835602362e-07
4.785869655e-07
4.730431543e-07
4.477684666e-07
4.623395439e-07
4.556112761e-07
4.581311903e-07
4.474337582e-07
3.931736082e-07
4.05277747e-07
4.027555438e-07
4.038601816e-07
3.998369843e-07
3.442815393e-07
3.470901337e-07
3.4911353e-07
3.548607828e-07
3.552889949e-07
3.120393732e-07
3.112370176e-07
3.154374719e-07
3.190514917e-07
3.228844068e-07
-3.41370118e-06
-5.669595174e-06
-1.36493138e-06
-3.27319476e-07
-1.074036977e-07
-4.273154858e-08
-1.869191536e-08
-9.873973171e-09
-6.971537569e-09
-6.21832149e-09
-6.114757183e-09
-6.142488116e-09
-6.175731463e-09
-6.192543806e-09
-6.195612214e-09
-6.1995529e-09
-6.199806664e-09
-6.19577553e-09
-6.196496601e-09
-6.196962705e-09
-6.196870775e-09
-6.196645619e-09
-6.196425388e-09
-6.196552186e-09
-6.197056805e-09
-6.197552367e-09
-6.198097851e-09
-6.198725267e-09
-6.19934991e-09
-6.199916319e-09
-6.200442845e-09
-6.200927296e-09
-6.201376816e-09
-6.20174439e-09
-6.202042207e-09
-6.20231376e-09
-6.202546794e-09
-6.202688464e-09
-6.202775023e-09
-6.202888794e-09
-6.20300314e-09
-6.203084999e-09
-6.203225324e-09
-6.203337813e-09
-6.203523098e-09
-6.20379877e-09
-6.204190653e-09
-6.204698686e-09
-6.205313213e-09
-6.205993902e-09
-6.206770499e-09
-6.207640116e-09
-6.208546715e-09
-6.209578073e-09
-6.211195278e-09
-6.215729562e-09
-6.230244984e-09
-6.263416441e-09
-6.300347907e-09
-6.362528842e-09
-8.248326919e-06
-1.500662956e-05
-2.408915604e-06
-4.338978141e-07
-1.255427196e-07
-5.044161207e-08
-2.315962951e-08
-1.313232778e-08
-9.974204425e-09
-9.361181788e-09
-9.516220285e-09
-9.765083735e-09
-9.946025856e-09
-1.004141307e-08
-1.008412148e-08
-1.010660034e-08
-1.012430389e-08
-1.014194949e-08
-1.015832341e-08
-1.016796568e-08
-1.017173983e-08
-1.017277025e-08
-1.017370775e-08
-1.01753019e-08
-1.01765233e-08
-1.017819936e-08
-1.017965521e-08
-1.018092437e-08
-1.018184623e-08
-1.018268825e-08
-1.018344025e-08
-1.018422584e-08
-1.018483122e-08
-1.018497192e-08
-1.018496038e-08
-1.018530487e-08
-1.018529275e-08
-1.018530423e-08
-1.0184852e-08
-1.018493918e-08
-1.018490552e-08
-1.018522427e-08
-1.018633256e-08
-1.018660249e-08
-1.018747244e-08
-1.018903051e-08
-1.019110503e-08
-1.01932644e-08
-1.019580324e-08
-1.019823836e-08
-1.020151416e-08
-1.020521843e-08
-1.020869803e-08
-1.021261281e-08
-1.021826964e-08
-1.023279722e-08
-1.027962106e-08
-1.042976447e-08
-1.081910256e-08
-1.127739822e-08
-2.696322865e-05
-2.193161924e-05
-1.26319092e-06
-1.23550432e-07
-4.055768798e-08
-1.749109085e-08
-8.781858624e-09
-4.665131787e-09
-3.924556589e-09
-4.615785973e-09
-5.568016392e-09
-6.357535113e-09
-6.875903248e-09
-7.178036448e-09
-7.33902438e-09
-7.419475659e-09
-7.481812456e-09
-7.553269041e-09
-7.607119904e-09
-7.641691233e-09
-7.662687958e-09
-7.677339967e-09
-7.689719562e-09
-7.70140142e-09
-7.712771616e-09
-7.723383407e-09
-7.733130389e-09
-7.742179412e-09
-7.75031851e-09
-7.757802278e-09
-7.764335119e-09
-7.770193695e-09
-7.77580692e-09
-7.780786507e-09
-7.784737572e-09
-7.788453006e-09
-7.791760062e-09
-7.794578482e-09
-7.79644715e-09
-7.7986023e-09
-7.800635175e-09
-7.802398698e-09
-7.804876891e-09
-7.806742393e-09
-7.80952547e-09
-7.812733458e-09
-7.816662615e-09
-7.820633868e-09
-7.824894974e-09
-7.829526932e-09
-7.834783163e-09
-7.840185132e-09
-7.8456555e-09
-7.85155137e-09
-7.858892296e-09
-7.874910593e-09
-7.91919488e-09
-8.040821238e-09
-8.277225122e-09
-8.449865312e-09
-5.819027246e-05
-7.229100919e-05
-1.808947395e-06
6.023310664e-07
1.158966739e-07
3.255392406e-08
1.707839716e-08
1.201841744e-08
8.375843509e-09
5.378438471e-09
3.058330654e-09
1.468916003e-09
4.735645649e-10
-1.230872447e-10
-4.663765983e-10
-6.606189516e-10
-8.081118068e-10
-9.483703649e-10
-1.046320719e-09
-1.110061986e-09
-1.152581409e-09
-1.18466414e-09
-1.212385689e-09
-1.237784564e-09
-1.261636465e-09
-1.283534312e-09
-1.303408102e-09
-1.321551799e-09
-1.338069222e-09
-1.353043809e-09
-1.36645782e-09
-1.37837542e-09
-1.388986122e-09
-1.398356348e-09
-1.406240771e-09
-1.413177126e-09
-1.419116668e-09
-1.42412069e-09
-1.428335325e-09
-1.43211551e-09
-1.435517328e-09
-1.438329e-09
-1.441000809e-09
-1.443396889e-09
-1.446253016e-09
-1.448979182e-09
-1.452376071e-09
-1.455729483e-09
-1.459588463e-09
-1.463528345e-09
-1.467884963e-09
-1.47226804e-09
-1.476923045e-09
-1.4815732e-09
-1.48664437e-09
-1.492883085e-09
-1.500351565e-09
-1.491052964e-09
-1.379476575e-09
-1.177903059e-09
-1.962796119e-05
-0.0001340146106
-5.729285915e-05
-7.827211999e-07
4.08056653e-07
1.386878468e-07
7.39627022e-08
4.750166544e-08
3.136808412e-08
2.080591913e-08
1.415416277e-08
1.023591572e-08
8.08203292e-09
6.903012432e-09
6.260419306e-09
5.903439504e-09
5.662715579e-09
5.472736548e-09
5.349261965e-09
5.273941695e-09
5.226246954e-09
5.190769266e-09
5.160317989e-09
5.132757788e-09
5.107495904e-09
5.084415557e-09
5.063289983e-09
5.044065538e-09
5.026540073e-09
5.010820437e-09
4.996774777e-09
4.984292752e-09
4.973481135e-09
4.96409592e-09
4.956208809e-09
4.949567338e-09
4.944088457e-09
4.93952156e-09
4.935772675e-09
4.932671856e-09
4.930141374e-09
4.928245833e-09
4.926740756e-09
4.925666359e-09
4.924581541e-09
4.923723854e-09
4.922413854e-09
4.92106571e-09
4.91925321e-09
4.917527189e-09
4.915495691e-09
4.913515377e-09
4.910965611e-09
4.9091283e-09
4.907869223e-09
4.912198621e-09
4.936375146e-09
5.031903046e-09
5.299293649e-09
5.606260591e-09
5.793505156e-05
-0.0001405866662
-0.0001598779302
-3.629479141e-05
2.259306906e-06
8.796544684e-07
3.186159535e-07
1.555128762e-07
8.707462795e-08
5.054503289e-08
3.036061727e-08
1.97338853e-08
1.448514651e-08
1.199588591e-08
1.082088177e-08
1.025669721e-08
9.93223451e-09
9.712865426e-09
9.580059376e-09
9.50352086e-09
9.458761533e-09
9.42880464e-09
9.404785316e-09
9.383348828e-09
9.363749284e-09
9.345969891e-09
9.329583187e-09
9.314732288e-09
9.301261554e-09
9.289186276e-09
9.278323237e-09
9.268726173e-09
9.260461324e-09
9.253309034e-09
9.247379128e-09
9.242456432e-09
9.238724928e-09
9.235683834e-09
9.233448442e-09
9.231982307e-09
9.231168664e-09
9.230912408e-09
9.231091056e-09
9.231727203e-09
9.232508578e-09
9.233495246e-09
9.234329017e-09
9.235059882e-09
9.235494889e-09
9.235875416e-09
9.235878074e-09
9.235820468e-09
9.23553192e-09
9.235762937e-09
9.236804527e-09
9.245866149e-09
9.276512921e-09
9.375604461e-09
9.599526814e-09
9.824128443e-09
0.0002984889432
-0.0001237356275
-0.0002449308465
-0.00022152579
-1.15321085e-05
4.063584888e-06
1.053577252e-06
4.052915354e-07
2.011322769e-07
1.0663121e-07
5.762163709e-08
3.272801823e-08
2.094631682e-08
1.57609279e-08
1.357215928e-08
1.263958006e-08
1.218126942e-08
1.191126718e-08
1.175795261e-08
1.167568079e-08
1.163295651e-08
1.160772015e-08
1.159011907e-08
1.157561776e-08
1.156249229e-08
1.155034596e-08
1.153956058e-08
1.152940256e-08
1.152011955e-08
1.151166766e-08
1.15037066e-08
1.14968125e-08
1.149079352e-08
1.148540644e-08
1.148096778e-08
1.147719587e-08
1.147412205e-08
1.147219683e-08
1.147076719e-08
1.146989016e-08
1.146989624e-08
1.147059741e-08
1.147141308e-08
1.147293718e-08
1.14746716e-08
1.147664699e-08
1.147858925e-08
1.148072398e-08
1.148248883e-08
1.148408725e-08
1.148540696e-08
1.148662973e-08
1.148736838e-08
1.148932127e-08
1.149122458e-08
1.149844383e-08
1.152168698e-08
1.158486931e-08
1.171113974e-08
1.18282443e-08
0.000694610479
-0.0001314259321
-0.0003199951621
-0.000425843939
-0.0001619517931
2.156838291e-05
5.0031889e-06
1.251965166e-06
4.966849881e-07
2.370748627e-07
1.1652256e-07
5.797472301e-08
3.123326081e-08
2.003859201e-08
1.56605127e-08
1.397998878e-08
1.327608908e-08
1.29145653e-08
1.271654184e-08
1.261003379e-08
1.255881255e-08
1.253035962e-08
1.251966054e-08
1.250711532e-08
1.249760664e-08
1.248893767e-08
1.248063599e-08
1.247375142e-08
1.24670695e-08
1.245978042e-08
1.245341249e-08
1.244836761e-08
1.244255945e-08
1.243739569e-08
1.243329622e-08
1.242989201e-08
1.242587802e-08
1.242388546e-08
1.242227543e-08
1.242106052e-08
1.242069158e-08
1.242106991e-08
1.242223595e-08
1.242317345e-08
1.242554241e-08
1.242804509e-08
1.242982747e-08
1.243327436e-08
1.243539852e-08
1.243841027e-08
1.244039681e-08
1.244235253e-08
1.244408131e-08
1.24460015e-08
1.244823707e-08
1.245346094e-08
1.24660487e-08
1.249732808e-08
1.25538101e-08
1.260356351e-08
0.0005378835657
-3.501151254e-05
-0.0003310971507
-0.0004904896984
-0.0004521572306
4.220428006e-05
2.681060852e-05
4.36625191e-06
1.299028601e-06
5.427251222e-07
2.438440444e-07
1.086084635e-07
4.990751899e-08
2.662209968e-08
1.809996375e-08
1.505518848e-08
1.390676095e-08
1.339985832e-08
1.313436662e-08
1.298803839e-08
1.291307281e-08
1.287818851e-08
1.285890071e-08
1.284821171e-08
1.283988497e-08
1.283284016e-08
1.282633878e-08
1.281937808e-08
1.281426645e-08
1.28083805e-08
1.280128626e-08
1.279520998e-08
1.279026635e-08
1.278449399e-08
1.277881081e-08
1.27743509e-08
1.276983149e-08
1.276745167e-08
1.276421979e-08
1.276106303e-08
1.276068489e-08
1.276021448e-08
1.276053169e-08
1.276171251e-08
1.276354613e-08
1.276598832e-08
1.27687718e-08
1.277191288e-08
1.277497616e-08
1.277821187e-08
1.278111072e-08
1.278381453e-08
1.278632457e-08
1.27887164e-08
1.279116452e-08
1.279471834e-08
1.28013248e-08
1.281510129e-08
1.283781155e-08
1.285736258e-08
-0.0001268647233
-0.0001228493004
-0.0003935480259
-0.0006361356026
-0.0007685201785
-5.593651909e-05
0.0001426635726
1.632143171e-05
3.332468396e-06
1.187033096e-06
4.874540618e-07
1.990216469e-07
8.130608049e-08
3.686032407e-08
2.143829065e-08
1.631053849e-08
1.449310847e-08
1.373472637e-08
1.335794186e-08
1.316630253e-08
1.306501166e-08
1.30076668e-08
1.297735839e-08
1.29634591e-08
1.295530232e-08
1.294851618e-08
1.294231208e-08
1.293610233e-08
1.29296193e-08
1.292271573e-08
1.291588673e-08
1.290919192e-08
1.290252315e-08
1.289591553e-08
1.288927742e-08
1.288318604e-08
1.287781954e-08
1.287368418e-08
1.286967445e-08
1.286667954e-08
1.286459154e-08
1.286342128e-08
1.286315213e-08
1.286375217e-08
1.286518805e-08
1.286744314e-08
1.287033241e-08
1.287366565e-08
1.287726681e-08
1.28809675e-08
1.288457145e-08
1.288804036e-08
1.289125165e-08
1.289425742e-08
1.28971681e-08
1.290034967e-08
1.290456039e-08
1.291138276e-08
1.292150624e-08
1.293009384e-08
-0.0006342818035
-0.0002640055663
-0.0003509340038
-0.0007460718313
-0.001075130021
-0.0005328924961
0.0003644249037
6.989190218e-05
1.035826435e-05
2.897346523e-06
1.020864861e-06
3.706510271e-07
1.34332905e-07
5.268052476e-08
2.624783226e-08
1.79785184e-08
1.520493697e-08
1.409355592e-08
1.35684955e-08
1.329458958e-08
1.315285946e-08
1.307423119e-08
1.302865907e-08
1.300596345e-08
1.299474822e-08
1.298749302e-08
1.29811571e-08
1.297487822e-08
1.296839505e-08
1.296145914e-08
1.295395422e-08
1.294607818e-08
1.293816471e-08
1.293039409e-08
1.292285759e-08
1.291569077e-08
1.29091338e-08
1.290345125e-08
1.28986045e-08
1.289460644e-08
1.289151642e-08
1.288947636e-08
1.288853919e-08
1.288864221e-08
1.288976082e-08
1.28918441e-08
1.289473153e-08
1.289823198e-08
1.290216286e-08
1.290633951e-08
1.29105539e-08
1.291467975e-08
1.291862243e-08
1.292233543e-08
1.292586781e-08
1.292934162e-08
1.293309745e-08
1.293799714e-08
1.294435652e-08
1.294937538e-08
-0.001876007724
-0.0006152219212
-0.0003725423003
-0.001052857106
-0.001532557699
-0.001287130144
0.0005917707257
0.0002540969743
3.481805053e-05
7.084473768e-06
2.028199623e-06
6.435835316e-07
2.082020316e-07
7.285252244e-08
3.229459517e-08
2.011592911e-08
1.612963352e-08
1.457870766e-08
1.384807726e-08
1.344197443e-08
1.323727822e-08
1.312200951e-08
1.305898121e-08
1.302742945e-08
1.301275083e-08
1.300411241e-08
1.299672799e-08
1.299007973e-08
1.298372281e-08
1.297672891e-08
1.296888825e-08
1.296052005e-08
1.295188443e-08
1.294318803e-08
1.293465892e-08
1.292647132e-08
1.291881191e-08
1.291194124e-08
1.290601256e-08
1.29010439e-08
1.289708259e-08
1.289426171e-08
1.289267545e-08
1.289229831e-08
1.289307334e-08
1.289494462e-08
1.289777955e-08
1.290137849e-08
1.290555264e-08
1.291010316e-08
1.291482039e-08
1.291953204e-08
1.292412639e-08
1.292852381e-08
1.29327014e-08
1.293671738e-08
1.294080793e-08
1.294555858e-08
1.295094269e-08
1.295485699e-08
-0.0008104257602
-0.0006017284113
-0.0005216194123
-0.001860198267
-0.00248342343
-0.002332330283
0.0003393943899
0.00089263141
7.301051369e-05
1.615114384e-05
3.740527064e-06
9.959504738e-07
2.851516571e-07
9.16486511e-08
3.80923467e-08
2.245104444e-08
1.723422115e-08
1.517869179e-08
1.418155655e-08
1.363969496e-08
1.333950738e-08
1.317393533e-08
1.308744645e-08
1.304514306e-08
1.302442267e-08
1.301227248e-08
1.300361359e-08
1.299708478e-08
1.299119059e-08
1.298450487e-08
1.297674587e-08
1.2968251e-08
1.295927082e-08
1.295000304e-08
1.29407367e-08
1.293174696e-08
1.292322071e-08
1.291538424e-08
1.29085018e-08
1.290268959e-08
1.289797243e-08
1.289445355e-08
1.289225598e-08
1.289139507e-08
1.289180776e-08
1.289343198e-08
1.289615695e-08
1.289978466e-08
1.29041168e-08
1.290894415e-08
1.291404823e-08
1.291923591e-08
1.292436987e-08
1.292935029e-08
1.293411815e-08
1.293869931e-08
1.294327822e-08
1.294830063e-08
1.295353253e-08
1.295694831e-08
0.001087746139
-0.0003235329441
-0.0005612610348
-0.002712573365
-0.004250666086
-0.004016640653
-0.0001624130758
0.001727933497
0.0002378930765
3.721676106e-05
6.849523423e-06
1.497245469e-06
3.721877951e-07
1.103068878e-07
4.40467041e-08
2.506688563e-08
1.854817077e-08
1.589133233e-08
1.459397346e-08
1.385029451e-08
1.345138252e-08
1.324347369e-08
1.312552018e-08
1.306223849e-08
1.303055611e-08
1.301460427e-08
1.300607238e-08
1.300055542e-08
1.299521588e-08
1.298885961e-08
1.298143307e-08
1.297316573e-08
1.296421781e-08
1.295475179e-08
1.294506482e-08
1.293551859e-08
1.292637737e-08
1.291785082e-08
1.291021581e-08
1.290369217e-08
1.289834153e-08
1.289423375e-08
1.289149678e-08
1.289018643e-08
1.289024956e-08
1.289161952e-08
1.28941976e-08
1.289779197e-08
1.29021992e-08
1.290720348e-08
1.291257732e-08
1.291811281e-08
1.2923658e-08
1.292909564e-08
1.293434276e-08
1.29394088e-08
1.294444636e-08
1.294977026e-08
1.295487022e-08
1.295783545e-08
0.002729172358
0.0007344376291
8.342155808e-06
-0.003795112192
-0.007168044923
-0.006297385606
-0.0005399098394
0.002765189326
0.0006228306989
9.246132743e-05
1.276088213e-05
2.14057734e-06
4.520599118e-07
1.253514724e-07
4.943403036e-08
2.768126038e-08
1.985517567e-08
1.66076457e-08
1.498110368e-08
1.406123849e-08
1.359089173e-08
1.331616781e-08
1.316084993e-08
1.307834463e-08
1.303658003e-08
1.301619785e-08
1.300642002e-08
1.300086732e-08
1.29960237e-08
1.299047699e-08
1.298387452e-08
1.297618682e-08
1.296753166e-08