/*--------------------------------*- C++ -*----------------------------------*\
  =========                 |
  \\      /  F ield         | OpenFOAM: The Open Source CFD Toolbox
   \\    /   O peration     | Website:  https://openfoam.org
    \\  /    A nd           | Version:  10
     \\/     M anipulation  |
\*---------------------------------------------------------------------------*/
FoamFile
{
    format      ascii;
    class       volScalarField;
    location    "0.02499901733";
    object      ddt0(rho,HO2);
}
// * * * * * * * * * * * * * * * * * * * * * * * * * * * * * * * * * * * * * //

dimensions      [1 -3 -1 0 0 0 0];

internalField   nonuniform List<scalar> 
5170
(
5.087996386e-07
5.260744583e-07
5.277464747e-07
5.748623047e-07
-3.689426503e-08
5.18838858e-08
5.595033915e-08
5.675767346e-08
8.933023047e-08
5.164930317e-07
-6.362860372e-08
-6.362678697e-08
-6.266830278e-08
-6.32915148e-08
5.035231324e-08
-8.142704594e-08
-8.267429317e-08
-8.236145099e-08
-8.540211806e-08
-7.428332347e-08
-8.277377249e-08
-8.568734302e-08
-9.009189697e-08
-8.719337139e-08
-9.171492896e-08
-7.013529063e-08
-6.887205628e-08
-7.226879295e-08
-8.886176539e-08
-8.929537118e-08
-5.048142855e-08
-5.019542325e-08
-4.831071056e-08
-7.347667226e-08
-7.60795628e-08
-2.745676985e-08
-3.154466463e-08
-3.977326795e-08
-3.862363263e-08
-5.209872517e-08
-7.951533523e-09
-9.405585804e-09
-1.723516672e-08
-1.63193276e-08
-2.912079384e-08
-5.943306467e-09
-2.118955897e-09
1.985667302e-08
-1.129711322e-08
-2.482663391e-08
-5.938427116e-09
-7.402219463e-09
8.002622173e-09
-9.387749773e-09
-2.878669395e-08
-9.51274772e-09
-1.671728961e-08
-3.992549365e-08
-1.794745881e-08
-3.886708581e-08
-3.888248277e-08
-3.957892005e-08
-6.908878866e-08
-4.940131564e-08
-6.893070471e-08
-7.894089735e-08
-7.468521855e-08
-8.33913271e-08
-9.172725041e-08
-1.089997213e-07
-1.169202109e-07
-1.122118504e-07
-1.052485226e-07
-1.317780147e-07
-1.492173427e-07
-1.486295898e-07
-1.462390044e-07
-1.380775258e-07
-1.617506161e-07
-1.880507948e-07
-1.724764705e-07
-1.764677247e-07
-1.747191628e-07
-1.846744907e-07
-2.181642833e-07
-1.958178137e-07
-1.97229832e-07
-2.079120995e-07
-2.116614836e-07
-2.360093367e-07
-2.156069814e-07
-2.136562634e-07
-2.450959709e-07
-2.21135087e-07
-2.54910509e-07
-2.293097867e-07
-1.968865048e-07
-2.054426603e-07
-3.415982219e-07
-2.60716127e-07
-4.787503252e-06
-5.728280763e-06
-4.826014765e-06
-5.720633155e-06
-7.791925507e-06
-4.551096883e-06
-1.338281369e-06
-1.420118984e-06
-1.285697013e-06
-2.545799224e-06
2.820485916e-06
-7.189142524e-07
1.287141632e-06
-4.805012329e-06
9.59183388e-08
-1.417797142e-05
1.495344033e-06
2.252814298e-06
-4.282651182e-06
6.029609352e-06
7.380455857e-06
6.681229963e-06
7.474539055e-06
-4.663243623e-06
-4.861831493e-06
1.075249022e-06
-3.087580237e-06
-2.827906058e-06
-4.694526764e-06
-4.81027402e-06
-3.650195924e-06
5.675688375e-06
9.848946157e-06
-4.770401815e-06
-1.514875471e-06
2.043691064e-05
-3.981160162e-06
-4.531805606e-06
2.661301898e-06
2.663574182e-06
1.86596679e-06
-2.330530382e-06
2.278749439e-06
-6.837526854e-07
-7.192142348e-06
-6.122804699e-06
-9.219032858e-07
-1.044540023e-06
-9.606859886e-06
7.149429292e-06
7.731102137e-06
-6.432155612e-06
-6.920925701e-06
-8.364605854e-06
4.39741499e-07
7.407412615e-07
-8.594688478e-06
-8.875538308e-06
6.708734752e-06
6.766097699e-07
9.772097413e-07
1.827077118e-06
6.850378229e-06
1.151912176e-07
4.400367117e-07
5.33471005e-07
7.387820439e-07
3.19662885e-07
5.179950938e-07
5.727061516e-07
8.294901759e-07
4.008708427e-07
6.999370869e-07
3.715049762e-07
5.901089248e-07
5.455386067e-07
7.054345039e-07
3.597689574e-07
8.469420878e-07
3.343805818e-07
6.707013284e-07
4.479929411e-07
5.659985291e-07
9.33005399e-07
3.205496868e-07
6.015843475e-07
5.50426959e-07
6.527781041e-07
6.878674931e-07
5.287896561e-07
7.389413459e-07
7.669377407e-07
5.010927106e-07
1.933586012e-07
8.554547305e-07
-4.719897858e-06
-4.056613638e-06
8.510440698e-07
-2.29415767e-06
1.470113158e-06
3.385624354e-07
1.93381047e-07
-4.708149305e-06
-0.0004092860742
-0.0001711761198
-1.027940368e-06
1.477507573e-06
1.426909677e-05
-0.0002505154662
6.927306843e-05
-6.853004674e-07
-9.001500624e-07
-0.0004202243181
-9.009394359e-06
0.0001335226992
1.571878812e-07
4.966112664e-06
-0.0001766314787
4.037141547e-05
7.623079775e-05
-1.92654207e-06
-1.510783497e-05
0.0001959990472
3.701518376e-05
3.170142806e-06
-1.259329656e-06
-3.201572463e-05
-0.0001191504342
1.186590094e-05
5.014629585e-05
2.768294196e-06
1.222757646e-08
-7.890043991e-05
1.205008797e-05
1.222959798e-05
1.325122672e-05
0.000348037757
1.93451164e-05
1.795103846e-05
-9.515262628e-05
9.372083224e-06
-0.0001326574054
4.117828377e-05
5.342256335e-05
0.0001746114707
1.777750661e-05
2.503625564e-05
3.784640008e-05
-8.528540885e-06
-5.317432234e-05
1.87607573e-05
2.646497707e-05
2.47389371e-05
-7.90307106e-06
-0.0001002570548
4.515930405e-06
2.308170429e-05
2.878248331e-05
1.252535994e-05
-4.335648265e-05
3.602753872e-05
2.850703428e-05
2.557763503e-05
3.05569866e-05
7.367434049e-05
-2.05868895e-06
1.447483174e-05
3.291774531e-05
4.509590664e-05
3.657844028e-05
-2.739209779e-06
5.83833502e-06
5.694422949e-06
1.426523453e-05
3.065124508e-05
-3.49754832e-05
-3.522216185e-05
-3.990211253e-05
-6.040988652e-05
-7.863093027e-05
-4.514902334e-05
-5.159983136e-05
-7.243904504e-05
-9.576201383e-05
-9.52733413e-05
-0.000147343282
-0.0001788061109
-0.0002323219533
-0.0003020085057
-0.0003139516352
-0.0002940370915
-0.0003254029953
-0.0003337131086
-0.0002080635576
6.392113193e-05
-0.0005610866508
-0.0006163593974
-0.0006774569587
-0.000644387438
-0.0004611761201
-0.001177554423
-0.00127603294
-0.001457188668
-0.001633835544
-0.00170969213
-0.001757464284
-0.001834255452
-0.002020337614
-0.00223576244
-0.002420981051
-0.001431005654
-0.001453663129
-0.001476216363
-0.001476778941
-0.001419880347
-0.0004344172321
-0.0003975265038
-0.0003145073282
-0.0001545931915
6.765692329e-05
0.000452977578
0.0004913822541
0.0005817242401
0.0007165177193
0.0009007889623
0.0008656724761
0.000890990943
0.0009433587077
0.001010970755
0.001103408541
0.0009120636015
0.0009187939534
0.0009391441032
0.0009680918426
0.0009978310343
0.000778761363
0.0007848806396
0.0007868833146
0.0007881466554
0.0008000553285
0.0006020207426
0.000603841335
0.000600252225
0.000593126684
0.0005865152927
0.0004402739564
0.0004472896781
0.000444541017
0.0004378954317
0.0004266024572
0.0002881434776
0.0002586723483
0.0002908305877
0.0002861052465
0.0002842132438
0.0001910674807
0.0001902907827
0.0001900496734
0.0001902177779
0.0001837803663
0.0001169253958
0.0001165017005
0.000115251197
0.0001123940305
0.0001152360975
6.25397801e-05
6.239584211e-05
6.118556682e-05
5.897182363e-05
5.182163494e-05
2.729167194e-05
2.69297796e-05
2.66639071e-05
2.599645359e-05
2.379122365e-05
1.750524101e-06
1.838775892e-06
1.134744897e-06
-2.770092752e-06
7.399729462e-07
-1.290319493e-05
-1.310480412e-05
-1.301655217e-05
-1.326748238e-05
-1.329628844e-05
-2.236677415e-05
-2.242021904e-05
-2.227180484e-05
-2.247704584e-05
-2.238121544e-05
-2.774802702e-05
-2.722195323e-05
-2.715536199e-05
-2.71688108e-05
-2.754228262e-05
-3.004985348e-05
-2.887848433e-05
-2.86049386e-05
-2.903323318e-05
-2.886119838e-05
-3.068846879e-05
-3.194653792e-05
-3.16422173e-05
-2.987541872e-05
-2.959132598e-05
-3.028859544e-05
-3.017124181e-05
-2.997195979e-05
-2.980617697e-05
-2.936919157e-05
-2.961817779e-05
-2.961422296e-05
-2.942851867e-05
-2.925868694e-05
-2.878510416e-05
-3.039977852e-05
-3.02892762e-05
-3.022035764e-05
-2.832130305e-05
-2.761202113e-05
-2.791356657e-05
-2.779548097e-05
-2.770815911e-05
-2.769759176e-05
-2.760402384e-05
-2.780292995e-05
-2.766186915e-05
-2.754684487e-05
-2.738043307e-05
-2.680338038e-05
-2.752019057e-05
-2.705335795e-05
-2.68647026e-05
-2.6606016e-05
-2.633060799e-05
-2.682484085e-05
-2.682092707e-05
-2.673569201e-05
-2.654450856e-05
-2.626227187e-05
-2.728178766e-05
-2.727493256e-05
-2.714453849e-05
-2.696179266e-05
-2.668659936e-05
-2.681897863e-05
-2.667713268e-05
-2.662678838e-05
-2.830213156e-05
-2.778462066e-05
-2.555064114e-05
-2.545550091e-05
-2.531730857e-05
-2.512158658e-05
-2.49755457e-05
-2.638493347e-05
-2.629140248e-05
-2.613497035e-05
-2.601775003e-05
-2.575448416e-05
-2.640008746e-05
-2.642694557e-05
-2.628211313e-05
-2.601022894e-05
-2.583407706e-05
-2.610659886e-05
-2.603626372e-05
-2.563442854e-05
-2.633670037e-05
-2.601359186e-05
-2.63192131e-05
-2.633522132e-05
-2.617837365e-05
-2.606720341e-05
-2.575679167e-05
-2.496071041e-05
-2.489650442e-05
-2.475832794e-05
-2.465360753e-05
-2.413678526e-05
-2.536576784e-05
-2.526342208e-05
-2.51308899e-05
-2.49303749e-05
-2.486874079e-05
-2.593198378e-05
-2.584509999e-05
-2.571577868e-05
-2.551608606e-05
-2.532126958e-05
-2.635505674e-05
-2.63411153e-05
-2.615776756e-05
-2.596321414e-05
-2.572601626e-05
-2.657850789e-05
-2.65378751e-05
-2.641528404e-05
-2.618823115e-05
-2.596647712e-05
-2.59265231e-05
-2.586327851e-05
-2.570766038e-05
-2.54801211e-05
-2.522445895e-05
-2.447365349e-05
-2.445083789e-05
-2.431011409e-05
-2.411476906e-05
-2.376198873e-05
-1.976717362e-05
-1.972466016e-05
-1.964818767e-05
-1.960321687e-05
-1.951945658e-05
-1.84251566e-05
-1.824252193e-05
-1.825698287e-05
-1.833375924e-05
-1.825929119e-05
-1.662248828e-05
-1.657517849e-05
-1.649956199e-05
-1.634424119e-05
-1.618058986e-05
-1.56516734e-05
-1.557454838e-05
-1.546659569e-05
-1.484386261e-05
-1.567373443e-05
-1.508142137e-05
-1.503867291e-05
-1.494370092e-05
-1.480355002e-05
-1.45942929e-05
-1.655077497e-05
-1.651121717e-05
-1.643211982e-05
-1.632006207e-05
-1.616571269e-05
-1.802706382e-05
-1.800120877e-05
-1.793670401e-05
-1.786745022e-05
-1.779150065e-05
-1.699744551e-05
-1.693856491e-05
-1.682489244e-05
-1.669033046e-05
-1.66287064e-05
0.0004097565141
-0.0003080434328
-0.0003271946069
-0.000145889525
2.970379145e-06
7.630967933e-05
0.000162658104
-0.0005221914894
0.0003328252865
0.0001437398697
-0.0001164542139
-6.745021349e-05
0.0001037155697
5.019208485e-05
2.622003243e-05
-7.299667994e-05
-0.0001050141922
-0.0003085116531
0.0001670679844
-0.0002337706751
-0.001638519473
-0.002442610648
-0.001296279703
0.0003013191681
0.001049638257
0.001176857521
0.001032796077
0.000807598409
0.0005860720939
0.0004187864808
0.0002809761288
0.0001757388817
0.0001111180827
5.228088651e-05
2.328762317e-05
-3.564449452e-07
-1.442304146e-05
-2.332085867e-05
-2.571221727e-05
-2.777476745e-05
-2.876781118e-05
-2.96321299e-05
-2.880185189e-05
-2.787766065e-05
-2.709976758e-05
-2.648350357e-05
-2.589560622e-05
-2.632532033e-05
-2.672217572e-05
-2.589184816e-05
-2.506148715e-05
-2.561127924e-05
-2.53858384e-05
-2.5507158e-05
-2.549730993e-05
-2.407706784e-05
-2.407205819e-05
-2.480650197e-05
-2.528404145e-05
-2.54346074e-05
-2.465672299e-05
-2.264805609e-05
-1.907834326e-05
-1.783210102e-05
-1.601975013e-05
-1.536045458e-05
-1.431239986e-05
-1.601703484e-05
-1.768496877e-05
-1.669076835e-05
-0.0001046369555
1.740150244e-05
-1.603074423e-05
2.995613211e-06
3.694669936e-05
-7.750345343e-06
8.098882724e-05
-3.363570155e-05
-1.446602271e-05
-3.307804352e-05
-3.379891639e-05
-0.0001972582346
-3.827306979e-05
5.664433181e-06
-4.439597404e-05
-0.0003084210951
4.220113411e-06
-3.087662177e-05
-3.543248765e-05
0.0001047752605
-0.0001637184006
-6.181376518e-05
2.522836655e-05
8.123278317e-06
6.787088102e-06
-0.001009571801
0.0001682492443
7.306348506e-05
-1.772390506e-05
-4.864920998e-05
0.0003726319351
0.0001489711742
3.533582702e-05
-2.178661489e-05
-6.57935653e-05
0.0003722042941
-1.561327002e-05
4.262739407e-05
7.163843472e-06
-2.48548788e-05
0.0001680517608
2.833257405e-05
-6.319438726e-06
7.333034751e-06
-1.436793223e-05
0.0004004520359
-4.28737078e-05
-2.092743078e-05
-1.200631863e-05
1.589333229e-06
-1.241984169e-05
7.382918244e-05
2.892295028e-05
-1.612485051e-05
5.634564931e-06
-7.38474963e-05
3.16705577e-05
-0.0001070208824
-3.023169222e-05
-1.679813341e-06
0.0001460655952
7.780134148e-05
1.492189546e-05
-6.502187694e-06
3.309214111e-06
2.504778931e-05
0.0001490713359
2.243953556e-05
-6.462139249e-06
-1.115984629e-05
2.331523391e-05
9.540751891e-05
-5.976084135e-05
-2.832647092e-05
-3.791261916e-05
-1.077694575e-05
-9.525436954e-06
-0.0002013900599
-7.765427722e-05
-4.772432161e-05
-0.0001910993888
-0.000448080173
-0.0001080711717
-8.044794836e-05
-3.456685221e-06
-0.0002731830512
-0.001814838691
-0.0003417872262
-0.000276750662
-7.68109933e-05
0.0001480161868
-0.00052397798
-0.002581270186
-0.005292350794
-0.002636163982
0.000245160993
0.0004114910382
-0.001585216501
-0.00480479904
-0.004346345498
-0.001219435369
-0.0004378727424
0.0005316906282
-0.001813918535
-0.005236759285
-0.0023038506
-0.001334776973
0.001416085729
0.007140181148
0.01498702901
-0.001095535228
-1.588696358e-05
0.002205828558
0.005620093297
0.009255558343
0.0005529896717
0.001302723686
0.002380667319
0.003637971328
0.004727369712
0.001250173593
0.001657470774
0.002103088395
0.002506993501
0.002763856113
0.001283950081
0.001455811838
0.001600046554
0.0016869267
0.001691898146
0.001070960269
0.001125202203
0.0011414843
0.001140040352
0.001121283684
0.0008207295762
0.0008282755821
0.0008028404872
0.0007332646055
0.0007165560103
0.000592181566
0.0005942781112
0.0005652638544
0.000518645783
0.0004670791572
0.0004164711524
0.000395976957
0.0003733043838
0.0003494945583
0.0003128807103
0.000276994375
0.0002629268713
0.0002427376216
0.0002145162977
0.0001932696553
0.000175396174
0.0001764231646
0.0001651265828
0.0001449598212
0.0001281806288
0.0001123486848
0.0001054161066
9.038025931e-05
7.99529414e-05
7.160113296e-05
5.821757988e-05
5.620521703e-05
5.222231925e-05
4.635884603e-05
3.719967193e-05
2.272379525e-05
2.055287895e-05
1.325795055e-05
1.448803666e-05
1.176427182e-05
5.514571304e-07
1.379149633e-07
-9.719350714e-07
-2.651531394e-06
-4.669699392e-06
-1.49485215e-05
-1.343228901e-05
-1.360194307e-05
-1.392931665e-05
-1.432771631e-05
-2.245790901e-05
-2.13161785e-05
-2.032002969e-05
-2.012398801e-05
-2.012477651e-05
-2.602023458e-05
-2.492979589e-05
-2.443947646e-05
-2.379551761e-05
-2.324702752e-05
-2.961691177e-05
-2.712358109e-05
-2.625870916e-05
-2.559596325e-05
-2.518050486e-05
-2.867592514e-05
-2.790857004e-05
-2.720088011e-05
-2.622263098e-05
-2.548731666e-05
-2.872343506e-05
-2.77770261e-05
-2.691350948e-05
-2.769678318e-05
-2.502570409e-05
-2.847258821e-05
-2.739147627e-05
-2.636858989e-05
-2.531506473e-05
-2.450311757e-05
-2.696018782e-05
-2.635406989e-05
-2.582743008e-05
-2.515547157e-05
-2.383934568e-05
-2.700532201e-05
-2.441265003e-05
-2.494360826e-05
-2.402655534e-05
-2.311798629e-05
-2.60713219e-05
-2.521965398e-05
-2.442764993e-05
-2.352636782e-05
-2.294389129e-05
-2.552301362e-05
-2.47536005e-05
-2.427707729e-05
-2.370695018e-05
-2.308540972e-05
-2.577199389e-05
-2.524331717e-05
-2.470311066e-05
-2.398764103e-05
-2.228027361e-05
-2.618646305e-05
-2.475930008e-05
-2.377869215e-05
-2.200076907e-05
-2.119451762e-05
-2.387885677e-05
-2.308301849e-05
-2.272931513e-05
-2.23377215e-05
-2.192080323e-05
-2.458276526e-05
-2.413406396e-05
-2.369653661e-05
-2.328736927e-05
-2.272844723e-05
-2.528220813e-05
-2.474475029e-05
-2.408168808e-05
-2.333132379e-05
-2.247407442e-05
-2.518775724e-05
-2.450858045e-05
-2.373639115e-05
-2.402240223e-05
-2.264741956e-05
-2.483787671e-05
-2.456953807e-05
-2.384633225e-05
-2.06146266e-05
-2.123629984e-05
-2.499447159e-05
-2.329172544e-05
-2.24784077e-05
-2.172222152e-05
-2.151121771e-05
-2.368058694e-05
-2.308710298e-05
-2.285825805e-05
-2.243520298e-05
-2.178562105e-05
-2.443011174e-05
-2.383438972e-05
-2.31961334e-05
-2.25285383e-05
-2.182133354e-05
-2.473809662e-05
-2.41211959e-05
-2.346269339e-05
-2.274126619e-05
-2.219270189e-05
-2.535897945e-05
-2.460429527e-05
-2.393309859e-05
-2.321852202e-05
-2.248918991e-05
-2.536130654e-05
-2.469237935e-05
-2.398237837e-05
-2.326791899e-05
-2.263234943e-05
-2.463669811e-05
-2.410510391e-05
-2.35586856e-05
-2.258699811e-05
-2.07005206e-05
-2.013900966e-05
-2.105940382e-05
-2.040900728e-05
-1.968322035e-05
-1.945913419e-05
-1.915104308e-05
-1.92435311e-05
-1.891055052e-05
-1.888538921e-05
-1.842708145e-05
-1.786628124e-05
-1.746834745e-05
-1.702996656e-05
-1.653893454e-05
-1.598436417e-05
-1.583962769e-05
-1.545109677e-05
-1.494538671e-05
-1.42851664e-05
-1.45364581e-05
-1.376696199e-05
-1.315792056e-05
-1.275688771e-05
-1.23032435e-05
-1.180031542e-05
-1.409454612e-05
-1.362056393e-05
-1.331585786e-05
-1.293852365e-05
-1.258729722e-05
-1.576101749e-05
-1.534560687e-05
-1.50027241e-05
-1.480281272e-05
-1.457055371e-05
-1.757645407e-05
-1.696795573e-05
-1.33781496e-05
-1.470214738e-05
-1.4142606e-05
-1.576434812e-05
-1.536016247e-05
-1.495923173e-05
-1.494898292e-05
-1.450813867e-05
1.003422104e-06
-3.889624986e-06
6.874155073e-08
-1.792300797e-06
-1.808194833e-06
1.804057877e-06
1.791802712e-06
1.791802023e-06
1.791799566e-06
1.793125363e-06
1.793124822e-06
1.791783706e-06
1.804530759e-06
-1.819930947e-06
1.804671416e-06
1.791890817e-06
1.802867471e-06
-1.80510637e-06
-1.795925705e-06
-1.794598945e-06
-1.794600731e-06
-1.794599019e-06
-1.794597349e-06
-1.795913388e-06
-1.79590768e-06
-1.795905173e-06
-1.795902743e-06
-1.795900384e-06
-1.80091196e-06
8.130289778e-07
1.794715339e-06
1.793044874e-06
1.793041204e-06
1.793038261e-06
1.793035456e-06
1.793032751e-06
1.793030146e-06
1.793027665e-06
1.793025306e-06
1.793023014e-06
1.792545711e-06
1.791734873e-06
1.791702474e-06
1.791700929e-06
1.79169947e-06
1.791698065e-06
1.791696708e-06
1.791695402e-06
1.791694135e-06
1.791692925e-06
1.791691763e-06
1.791690645e-06
1.791689582e-06
1.791688551e-06
1.79168756e-06
1.791686606e-06
1.792665704e-06
1.794638116e-06
-1.797437552e-06
6.048297858e-07
2.173629173e-05
-1.501803518e-05
9.833190499e-07
-1.432438135e-06
-1.804447899e-06
1.800565843e-06
1.792025084e-06
1.792874522e-06
1.80751291e-06
-1.820452153e-06
-1.819949494e-06
1.806608454e-06
1.791608942e-06
1.815505469e-06
-1.830180352e-06
1.804083758e-06
1.802608351e-06
-1.427766527e-06
1.823416933e-06
-1.805279487e-06
-1.795425558e-06
-1.794538734e-06
-1.804556259e-06
1.813005308e-06
1.804125397e-06
1.803479032e-06
1.802815737e-06
1.803069862e-06
1.804127088e-06
1.801663799e-06
-1.245352392e-06
-1.808037541e-06
-1.806897352e-06
-1.806432414e-06
-1.805617334e-06
-1.805618964e-06
-1.805618909e-06
-1.806347461e-06
-1.806894574e-06
-1.808544116e-06
-5.128543674e-07
1.746986641e-06
1.792837396e-06
1.792841438e-06
1.792839317e-06
1.7928375e-06
1.792470266e-06
1.791936669e-06
1.791546398e-06
1.791545398e-06
1.791544137e-06
1.791542972e-06
1.791658512e-06
1.792080172e-06
1.792548123e-06
1.794705431e-06
-9.495036921e-07
-1.807542466e-06
1.804205558e-06
1.795006867e-06
2.792880941e-06
-2.304394972e-05
-1.226757488e-06
1.113667873e-06
1.789166375e-06
4.461562129e-07
5.085821924e-07
-1.800282535e-06
-4.758397824e-07
-1.033667923e-07
-1.123437181e-06
-1.100207689e-06
1.806136175e-06
1.805823684e-06
-1.821011502e-06
1.807397979e-06
-8.337501355e-07
1.813427624e-06
9.886237273e-07
-1.810606444e-06
7.09609923e-07
-1.778899456e-06
1.818007163e-06
-1.19642488e-07
-1.814329978e-06
-3.229402151e-08
1.797884394e-06
1.118600621e-06
-1.812557163e-06
-1.809457111e-06
-1.054904908e-07
1.807017058e-06
1.805596158e-06
4.985301386e-07
-1.799402424e-06
-1.794640631e-06
-1.798209414e-06
2.551720655e-07
1.806102111e-06
1.803126838e-06
1.800893534e-06
3.495966809e-07
-1.50223242e-06
-1.806921796e-06
-1.806244294e-06
-1.806829319e-06
-7.933863096e-07
7.238694562e-07
1.792873503e-06
1.792176823e-06
1.792538721e-06
1.792633052e-06
1.50107614e-06
2.950735426e-07
-1.044092668e-06
-1.806280525e-06
-1.797956132e-06
-1.794374423e-06
-1.804919386e-06
-1.804409465e-06
-8.01526364e-05
-3.788422198e-05
-8.912788914e-07
-8.514090095e-07
-9.666477522e-07
-9.368499495e-07
-9.03162739e-07
-8.653264632e-07
-8.387591248e-07
-8.108756886e-07
-7.815566128e-07
-7.499800532e-07
4.634903375e-07
7.166820944e-07
9.079262993e-08
-7.989316521e-08
-1.724829538e-07
-4.810067679e-08
-1.853433848e-07
-3.066584977e-07
-6.408333269e-07
-1.137459568e-06
2.321273637e-07
2.438456048e-07
-5.329253114e-07
-7.736021356e-07
7.874595256e-07
-9.821507654e-08
-3.226746132e-07
5.699420538e-07
-5.770577514e-07
4.872104224e-07
-2.58910153e-07
-1.364558527e-07
6.550419676e-07
-1.295370375e-06
6.222589365e-07
2.255300694e-07
-1.16464555e-06
5.423849591e-07
5.534845042e-07
-1.006499263e-06
-2.7840602e-07
1.14393691e-06
3.270159267e-07
-9.862030597e-07
-5.661411867e-07
6.406962252e-07
9.995462576e-07
-1.112005754e-07
-1.16852489e-06
-6.738190016e-07
3.426770994e-07
1.328482613e-06
3.658526732e-07
-1.213402111e-06
7.565447829e-07
6.497671914e-07
-9.092470822e-07
-1.291539908e-06
-8.981829781e-06
-4.43128219e-05
-4.425370535e-05
-5.737485563e-06
-2.091980841e-06
-2.02385842e-06
-2.00612281e-06
-1.981101006e-06
-1.952995913e-06
-1.924773508e-06
-1.899289301e-06
-1.880282302e-06
-1.864777779e-06
-1.855818138e-06
-1.854804905e-06
-1.848169387e-06
-1.799947659e-06
-1.713023926e-06
-1.628470672e-06
-1.567963293e-06
-1.531746432e-06
-1.510246057e-06
-1.500716701e-06
-1.489343201e-06
-1.476519455e-06
-1.465937601e-06
-1.461313995e-06
-1.450109469e-06
-1.441387611e-06
-1.436507541e-06
-1.426068163e-06
-1.422568123e-06
-1.414089907e-06
-1.408529736e-06
-1.405235737e-06
-1.394135408e-06
-1.394799773e-06
-1.388825347e-06
-1.380049393e-06
-1.380712118e-06
-1.37657263e-06
-1.367876302e-06
-1.36620341e-06
-1.366814466e-06
-1.360923056e-06
-1.353681554e-06
-1.351795559e-06
-1.35240241e-06
-1.350575514e-06
-1.344515156e-06
-1.338719208e-06
-1.337721712e-06
-1.33827505e-06
-1.338932689e-06
-1.333639595e-06
-1.327013536e-06
-1.333820968e-06
-1.350104735e-06
-1.398230585e-06
-1.449052638e-06
-0.0001166432534
-2.699350108e-05
-6.815433727e-05
-1.960970386e-05
-6.945862909e-07
-1.621777127e-06
-1.968556827e-06
-2.066519959e-06
-2.099996168e-06
-2.110602329e-06
-2.11127915e-06
-2.110567545e-06
-2.114661913e-06
-2.12614732e-06
-2.141151169e-06
-2.147786051e-06
-2.125460672e-06
-2.075303391e-06
-2.026472508e-06
-1.996411353e-06
-1.985364408e-06
-1.983776317e-06
-1.983835047e-06
-1.982750054e-06
-1.980492191e-06
-1.977707896e-06
-1.974810533e-06
-1.971915892e-06
-1.969126475e-06
-1.966401857e-06
-1.96373981e-06
-1.961136111e-06
-1.958590467e-06
-1.956106015e-06
-1.953646128e-06
-1.951252823e-06
-1.948907219e-06
-1.946610567e-06
-1.944355889e-06
-1.942171084e-06
-1.940068252e-06
-1.938002229e-06
-1.936027345e-06
-1.934103241e-06
-1.932237579e-06
-1.930426501e-06
-1.928711746e-06
-1.92706272e-06
-1.925478619e-06
-1.923936076e-06
-1.922443058e-06
-1.921000553e-06
-1.91956618e-06
-1.918186745e-06
-1.916591037e-06
-1.914364295e-06
-1.911179148e-06
-1.908538175e-06
-1.905458554e-06
-1.894436437e-06
-0.0001624056148
-0.0001757255893
-0.0001594972267
-0.0001097739698
-9.993508751e-06
2.202048287e-07
-1.167566896e-06
-1.533364023e-06
-1.662955652e-06
-1.723871827e-06
-1.753881435e-06
-1.772409743e-06
-1.787878909e-06
-1.803933741e-06
-1.81784038e-06
-1.820617859e-06
-1.799455728e-06
-1.757870006e-06
-1.720107261e-06
-1.699339581e-06
-1.696191384e-06
-1.701369329e-06
-1.707044796e-06
-1.710541209e-06
-1.712219712e-06
-1.712927468e-06
-1.713231595e-06
-1.713377967e-06
-1.713429192e-06
-1.713370964e-06
-1.713265711e-06
-1.71308799e-06
-1.712810161e-06
-1.712474865e-06
-1.71206591e-06
-1.71160155e-06
-1.711088843e-06
-1.710523944e-06
-1.709929538e-06
-1.709308314e-06
-1.708657576e-06
-1.707974419e-06
-1.70729742e-06
-1.706600498e-06
-1.705923968e-06
-1.705238539e-06
-1.704565966e-06
-1.703875736e-06
-1.703224068e-06
-1.7025587e-06
-1.701925132e-06
-1.701253133e-06
-1.700608288e-06
-1.699818905e-06
-1.698504867e-06
-1.695140042e-06
-1.686363722e-06
-1.665759124e-06
-1.627967016e-06
-1.591818932e-06
-4.04576766e-05
-0.0002077478166
-0.0003535002246
-0.0003111512503
-0.0001217665104
8.610472474e-06
1.510301753e-06
-6.375673035e-07
-1.108442847e-06
-1.275923781e-06
-1.351890656e-06
-1.393071797e-06
-1.420431134e-06
-1.441346963e-06
-1.455524997e-06
-1.45584784e-06
-1.432623358e-06
-1.391653926e-06
-1.353857745e-06
-1.33250316e-06
-1.328229023e-06
-1.33308534e-06
-1.338653812e-06
-1.342238453e-06
-1.343940265e-06
-1.344639424e-06
-1.344963269e-06
-1.345183055e-06
-1.345349921e-06
-1.345506282e-06
-1.345646766e-06
-1.345721065e-06
-1.345792271e-06
-1.345810163e-06
-1.345777984e-06
-1.34570295e-06
-1.345619749e-06
-1.345461621e-06
-1.345279542e-06
-1.345067572e-06
-1.344818073e-06
-1.34453228e-06
-1.344217644e-06
-1.343897689e-06
-1.343546191e-06
-1.343188256e-06
-1.342860439e-06
-1.342462979e-06
-1.342115357e-06
-1.341727206e-06
-1.341374951e-06
-1.340982099e-06
-1.340608226e-06
-1.339987213e-06
-1.338789382e-06
-1.335260844e-06
-1.326120229e-06
-1.30571037e-06
-1.273667869e-06
-1.249160465e-06
-4.064465553e-05
-0.0001270236039
-0.0004746276448
-0.0004635979337
-0.0002341051249
4.585737392e-05
1.531590974e-05
1.335564626e-06
-4.700610249e-07
-9.075966273e-07
-1.073960762e-06
-1.152740277e-06
-1.197982669e-06
-1.224181381e-06
-1.237747052e-06
-1.237306912e-06
-1.213057802e-06
-1.171443862e-06
-1.133484563e-06
-1.110969593e-06
-1.10475167e-06
-1.107787485e-06
-1.112628056e-06
-1.115667111e-06
-1.116786646e-06
-1.116832687e-06
-1.11648762e-06
-1.11612374e-06
-1.115721744e-06
-1.115402768e-06
-1.115186633e-06
-1.114974826e-06
-1.114765629e-06
-1.114603431e-06
-1.114471436e-06
-1.114313146e-06
-1.114174976e-06
-1.113981511e-06
-1.113830223e-06
-1.113687633e-06
-1.113460533e-06
-1.113242466e-06
-1.113005438e-06
-1.112744819e-06
-1.112470163e-06
-1.112180065e-06
-1.111892427e-06
-1.111595952e-06
-1.11131128e-06
-1.111018823e-06
-1.110747763e-06
-1.110460116e-06
-1.110176837e-06
-1.109720395e-06
-1.108757743e-06
-1.106003543e-06
-1.09946535e-06
-1.086736696e-06
-1.070582303e-06
-1.061846838e-06
-6.420697034e-06
-5.67102862e-05
-0.0005040485295
-0.0007264474759
-0.0004444464157
-1.233273573e-05
7.603600424e-05
7.858346917e-06
6.8149785e-07
-5.017129904e-07
-8.724316812e-07
-1.022255625e-06
-1.090415932e-06
-1.126121858e-06
-1.140515442e-06
-1.136783046e-06
-1.111357875e-06
-1.070736111e-06
-1.034145569e-06
-1.011475981e-06
-1.004402286e-06
-1.007021208e-06
-1.011843677e-06
-1.014927978e-06
-1.015918274e-06
-1.015693274e-06
-1.015007159e-06
-1.014252825e-06
-1.013552204e-06
-1.012950744e-06
-1.012431788e-06
-1.011987475e-06
-1.011611909e-06
-1.011295359e-06
-1.011037682e-06
-1.010805675e-06
-1.010595198e-06
-1.010378589e-06
-1.010192737e-06
-1.009999694e-06
-1.009800612e-06
-1.009594453e-06
-1.009378576e-06
-1.009149815e-06
-1.008907582e-06
-1.008649443e-06
-1.008383375e-06
-1.008113334e-06
-1.007847449e-06
-1.007588547e-06
-1.007347422e-06
-1.007108746e-06
-1.006877395e-06
-1.00652755e-06
-1.005778993e-06
-1.003850477e-06
-9.998343173e-07
-9.934457002e-07
-9.879290672e-07
-9.880679751e-07
4.640394015e-06
-2.672009517e-05
-0.0003504619072
-0.001052414541
-0.0007188655132
1.571244679e-05
0.0002646182375
3.887158451e-05
4.294335929e-06
2.891881704e-07
-6.279885271e-07
-9.278491589e-07
-1.038737133e-06
-1.085341856e-06
-1.101595604e-06
-1.095366698e-06
-1.068087033e-06
-1.029417577e-06
-9.947252717e-07
-9.735689851e-07
-9.666972218e-07
-9.692226315e-07
-9.744051296e-07
-9.780277306e-07
-9.793709211e-07
-9.792766845e-07
-9.785990307e-07
-9.777835521e-07
-9.769959053e-07
-9.762949924e-07
-9.756941823e-07
-9.751880996e-07
-9.747607972e-07
-9.744008921e-07
-9.740995451e-07
-9.738442975e-07
-9.736222452e-07
-9.734173792e-07
-9.732266946e-07
-9.73043825e-07
-9.728627192e-07
-9.726758904e-07
-9.724786463e-07
-9.722696139e-07
-9.72047392e-07
-9.718098781e-07
-9.715617506e-07
-9.713074017e-07
-9.710521242e-07
-9.708023804e-07
-9.705684602e-07
-9.703471185e-07
-9.701299009e-07
-9.698193503e-07
-9.691798265e-07
-9.677518726e-07
-9.65205671e-07
-9.621567462e-07
-9.613506627e-07
-9.649211736e-07
-5.919758479e-06
-3.990541693e-05
-0.0003052004647
-0.001585707588
-0.0011404816
-6.889631129e-05
0.0003255851037
0.0001356280438
1.603995655e-05
1.984317241e-06
-2.784222783e-07
-8.39862063e-07
-1.012782226e-06
-1.067493559e-06
-1.082111698e-06
-1.075938624e-06
-1.047995054e-06
-1.008940167e-06
-9.757034182e-07
-9.589543519e-07
-9.53338676e-07
-9.563253868e-07
-9.618265766e-07
-9.659144221e-07
-9.676658472e-07
-9.678421652e-07
-9.673294584e-07
-9.665941245e-07
-9.658354318e-07
-9.651459486e-07
-9.645501998e-07
-9.640429372e-07
-9.636170287e-07
-9.632633681e-07
-9.62970599e-07
-9.627273832e-07
-9.625219486e-07
-9.623399053e-07
-9.621708331e-07
-9.620093566e-07
-9.618495236e-07
-9.61684069e-07
-9.615068648e-07
-9.613154701e-07
-9.611092727e-07
-9.608861526e-07
-9.606493911e-07
-9.604040361e-07
-9.601547683e-07
-9.59908296e-07
-9.596731648e-07
-9.594501952e-07
-9.592222951e-07
-9.589011273e-07
-9.582849968e-07
-9.570797414e-07
-9.552266365e-07
-9.536308027e-07
-9.544341213e-07
-9.590632452e-07
-1.349484149e-05
-7.603636103e-05
-0.0003720444894
-0.002387567038
-0.001868767747
-0.0001579437992
0.0006060959582
0.0004634781202
3.209322365e-05
4.985481972e-06
1.67631094e-07
-7.668355885e-07
-9.939994059e-07
-1.055585501e-06
-1.06925718e-06
-1.061295743e-06
-1.033236814e-06
-9.954937113e-07
-9.655358969e-07
-9.500773669e-07
-9.477991345e-07
-9.51643678e-07
-9.574872101e-07
-9.619381622e-07
-9.641011889e-07
-9.645925207e-07
-9.642477592e-07
-9.635814709e-07
-9.62853186e-07
-9.621814151e-07
-9.615970164e-07
-9.61097627e-07
-9.606792529e-07
-9.603362143e-07
-9.600570604e-07
-9.598287058e-07
-9.596402645e-07
-9.594793124e-07
-9.593322774e-07
-9.591909694e-07
-9.590504608e-07
-9.589039969e-07
-9.587445003e-07
-9.585682262e-07
-9.583744694e-07
-9.581619107e-07
-9.579329343e-07
-9.576929018e-07
-9.574471998e-07
-9.572014541e-07
-9.569620366e-07
-9.567301458e-07
-9.564813675e-07
-9.561283747e-07
-9.554962354e-07
-9.543818161e-07
-9.528672208e-07
-9.519101244e-07
-9.531325784e-07
-9.58100326e-07
-2.800282605e-05
-0.000109117616
-0.0004799663893
-0.00292353771
-0.003212334316
-9.943188631e-06
0.00119332941
0.0009425253291
9.585048356e-05
1.063044169e-05
7.571914601e-07
-6.936210618e-07
-9.725759306e-07
-1.039590674e-06
-1.054274151e-06
-1.045062856e-06
-1.016568486e-06