/*--------------------------------*- C++ -*----------------------------------*\
  =========                 |
  \\      /  F ield         | OpenFOAM: The Open Source CFD Toolbox
   \\    /   O peration     | Website:  https://openfoam.org
    \\  /    A nd           | Version:  10
     \\/     M anipulation  |
\*---------------------------------------------------------------------------*/
FoamFile
{
    format      ascii;
    class       volScalarField;
    location    "0.02499901733";
    object      ddt0(rho,HCCOH);
}
// * * * * * * * * * * * * * * * * * * * * * * * * * * * * * * * * * * * * * //

dimensions      [1 -3 -1 0 0 0 0];

internalField   nonuniform List<scalar> 
5170
(
-6.794819892e-83
-6.795349414e-83
-6.795779503e-83
-6.797163227e-83
-6.801514104e-83
-6.850818805e-83
-6.851464096e-83
-6.852392023e-83
-6.854098907e-83
-6.858300583e-83
-6.851136389e-83
-6.851888931e-83
-6.853195387e-83
-6.854989158e-83
-6.859124809e-83
-6.851023996e-83
-6.851930379e-83
-6.85349951e-83
-6.855266066e-83
-6.859459166e-83
-6.850986218e-83
-6.852045961e-83
-6.85378353e-83
-6.855473332e-83
-6.859823406e-83
-6.850955496e-83
-6.852158611e-83
-6.854085452e-83
-6.863123814e-83
-9.853773596e-83
-6.859859752e-83
-7.08726427e-83
-1.187308099e-82
-5.578751367e-81
-2.242963846e-78
-3.53709782e-81
-1.056733167e-79
-2.990967687e-78
-4.175909674e-76
-1.654270564e-73
-1.386088599e-76
-4.950738682e-75
-1.897306913e-73
-3.265404403e-71
-1.210062854e-68
-5.661499997e-72
-2.416526821e-70
-1.268358407e-68
-2.622620837e-66
-8.825013407e-64
-2.36084426e-67
-1.223104248e-65
-8.806303173e-64
-2.148079732e-61
-6.438915151e-59
-1.002592569e-62
-6.381664862e-61
-6.280830878e-59
-1.773059319e-56
-4.706718196e-54
-4.314565992e-58
-3.405332964e-56
-4.520631731e-54
-1.457251022e-51
-3.451073131e-49
-1.870974224e-53
-1.838830965e-51
-3.236600189e-49
-1.175003313e-46
-2.540567058e-44
-8.092168616e-49
-9.947183981e-47
-2.273059576e-44
-9.165363904e-42
-1.877920418e-39
-3.460462331e-44
-5.321769594e-42
-1.546844084e-39
-6.830381952e-37
-1.393652987e-34
-1.433053313e-39
-2.767088113e-37
-1.002482545e-34
1.481993558e-17
-8.467531545e-16
-1.003739038e-15
6.945383622e-16
-1.851188156e-15
-7.182121092e-16
2.169389211e-15
2.84413944e-15
2.706046149e-14
-1.097153946e-14
-7.048842963e-14
-2.694939493e-13
-7.860467501e-14
-4.797553012e-13
-4.448647632e-12
-3.382332135e-11
-1.474055503e-10
-2.727638778e-10
-1.536387021e-10
1.775982602e-10
-9.918521026e-11
3.130323984e-10
-2.652527753e-10
-2.636344013e-10
3.768266233e-10
4.715879271e-10
-6.205482839e-11
-7.081522671e-11
-8.147435915e-11
1.97910636e-10
-1.616599053e-10
-5.077378924e-11
-4.393857762e-11
-1.185862146e-11
1.963713749e-13
-4.033297812e-11
1.961442191e-12
-2.318581315e-11
1.07992964e-11
6.289484192e-12
-1.331083335e-12
4.249764681e-11
1.347570432e-09
1.867707184e-12
5.421538347e-11
1.496638395e-10
-4.613645455e-09
-1.9411665e-08
-4.673336893e-10
-2.548996337e-08
3.34200594e-08
-1.018326028e-06
3.701347407e-06
1.13690825e-07
-2.713597882e-08
-1.092245063e-06
8.570016086e-07
7.172147687e-07
-1.029934996e-06
-3.905951858e-07
-2.077528116e-07
-9.691061078e-07
-7.245762718e-07
-2.322562919e-07
-3.058406053e-07
-1.861888797e-06
8.407655552e-07
9.63106642e-07
-7.944043418e-07
-8.969542605e-07
-1.149889225e-06
-9.237591954e-08
-4.746635169e-08
-1.276324151e-06
-1.364572768e-06
8.547194016e-07
-4.155625964e-08
2.578252423e-08
-1.005972714e-07
8.387136134e-07
-1.900444953e-07
-1.018521387e-07
-8.040684641e-08
-3.956503677e-08
-1.663421591e-07
-3.80449475e-08
-8.127047548e-08
-8.643002296e-08
-2.98655156e-08
-3.427267738e-08
-6.513417934e-08
-7.056533162e-08
-7.544412264e-08
-6.990298491e-08
-6.31627411e-08
-6.880104693e-08
-6.44216494e-08
-7.106439174e-08
-6.99560131e-08
-6.807239372e-08
-6.37311025e-08
-6.109448844e-08
-7.032606445e-08
-6.714591456e-08
-6.608425006e-08
-6.420065421e-08
-6.139756293e-08
-6.821751922e-08
-6.900219315e-08
-6.856859673e-08
-6.6727102e-08
-6.658519562e-08
-6.345589633e-08
-1.109682835e-06
-6.710198819e-08
-7.188373221e-08
-4.334995186e-08
-3.976900245e-12
-3.369202033e-11
-5.028355299e-10
-6.603738066e-09
-5.457348009e-08
-1.690318277e-10
-1.118287062e-09
-1.678361183e-08
-2.274737773e-07
-1.403491563e-06
-9.069074135e-10
-6.539196175e-09
-6.811529538e-08
-6.253078781e-07
-2.50882438e-06
-2.586854741e-09
-1.43659607e-08
-1.306840238e-07
-8.90243992e-07
-2.451284489e-06
-8.482306922e-09
-6.074022905e-08
-4.242589127e-07
-1.355051189e-06
-2.122319784e-06
-1.429248374e-08
-1.246040852e-07
-7.95807966e-07
-1.824623878e-06
-2.351310567e-06
-1.920036656e-10
-5.293265024e-08
-6.530692817e-07
-1.598559667e-06
-2.713545953e-06
4.854910108e-08
1.096213004e-07
-1.106921579e-07
-9.627047622e-07
-1.931109843e-06
1.217807752e-07
3.149844272e-07
3.185501562e-07
-1.270525771e-07
-4.283335762e-07
2.129387763e-07
4.881647003e-07
5.634228995e-07
5.579623432e-08
-2.845723467e-07
2.28933977e-07
2.783188553e-07
3.464052219e-07
3.370911844e-07
2.074698839e-07
1.107856018e-08
3.952443703e-07
7.314735603e-07
1.155159358e-06
1.149975784e-06
1.294348304e-06
1.022866063e-06
8.851535153e-07
9.605188153e-07
1.938806257e-06
-6.782354496e-07
-4.02501388e-09
8.420010539e-07
1.393565266e-06
1.068897818e-06
1.433647551e-07
6.580934123e-07
1.048036912e-06
1.511389028e-06
1.493444752e-06
-6.345777881e-07
-2.137344535e-07
1.351365349e-06
3.772616026e-06
6.082365925e-06
2.749456132e-06
4.491915332e-06
7.558027171e-06
1.154083552e-05
1.651397165e-05
1.364270952e-05
1.674889905e-05
2.374818829e-05
3.486791124e-05
5.147345933e-05
2.589517902e-05
3.011865638e-05
4.031884015e-05
5.626055891e-05
7.621551752e-05
3.590260447e-05
4.068147526e-05
5.099616736e-05
6.582712839e-05
8.235316622e-05
4.140084052e-05
4.510950182e-05
5.137771637e-05
5.887090462e-05
6.690948667e-05
3.919976698e-05
4.034699805e-05
4.200819282e-05
4.385278485e-05
4.525183699e-05
3.223044763e-05
3.212310243e-05
3.20952685e-05
3.190505487e-05
3.121252109e-05
2.794660216e-05
2.770184024e-05
2.732319492e-05
2.683028264e-05
2.564175768e-05
2.734392344e-05
2.717728182e-05
2.685630588e-05
2.633071079e-05
2.560568407e-05
2.819227227e-05
2.815790129e-05
2.788347268e-05
2.756266971e-05
2.703444902e-05
2.805826524e-05
2.78952122e-05
2.768813893e-05
2.735766419e-05
2.680027848e-05
2.54208277e-05
2.540703023e-05
2.514273608e-05
2.480567329e-05
2.432871268e-05
2.132826893e-05
2.129168092e-05
2.106383736e-05
2.07524139e-05
2.035893822e-05
1.692514782e-05
1.683615589e-05
1.668052538e-05
1.642914288e-05
1.609059528e-05
1.29430486e-05
1.290824302e-05
1.27762056e-05
1.259244434e-05
1.233045432e-05
9.716466613e-06
9.677615439e-06
9.592365226e-06
9.448881237e-06
9.285379203e-06
7.11552184e-06
7.097981403e-06
7.036260883e-06
6.935429283e-06
6.81512049e-06
5.05278846e-06
5.037214933e-06
4.993141284e-06
4.927841521e-06
4.842819849e-06
3.439950834e-06
3.426935223e-06
3.400388401e-06
3.358544311e-06
3.301175262e-06
2.233709222e-06
2.228127172e-06
2.212117237e-06
2.184762673e-06
2.152516554e-06
1.387189118e-06
1.382887666e-06
1.373943558e-06
1.35884845e-06
1.33932111e-06
8.234702115e-07
8.213654918e-07
8.165419929e-07
8.081963829e-07
7.976551566e-07
4.678515176e-07
4.672831932e-07
4.646364655e-07
4.603268619e-07
4.54407149e-07
2.547783285e-07
2.542068381e-07
2.529268612e-07
2.509738332e-07
2.479643991e-07
1.323518812e-07
1.321137213e-07
1.315475024e-07
1.306066192e-07
1.292490153e-07
6.548074823e-08
6.541081209e-08
6.517533255e-08
6.475081767e-08
6.419602708e-08
3.080095744e-08
3.077243632e-08
3.068198725e-08
3.051538106e-08
3.02862524e-08
1.373671684e-08
1.373085903e-08
1.370153976e-08
1.363850192e-08
1.355772137e-08
5.802697519e-09
5.803305368e-09
5.794563475e-09
5.775055482e-09
5.74605939e-09
2.320057069e-09
2.321004624e-09
2.319335373e-09
2.314324433e-09
2.30631388e-09
8.774598181e-10
8.781950576e-10
8.783240289e-10
8.775063219e-10
8.75789446e-10
3.139659764e-10
3.143507358e-10
3.146774039e-10
3.147804868e-10
3.147216787e-10
1.06293218e-10
1.064741038e-10
1.06688182e-10
1.06859653e-10
1.07022624e-10
3.403811924e-11
3.411462948e-11
3.421617401e-11
3.431793667e-11
3.443043559e-11
1.000943836e-11
1.003372529e-11
1.007019328e-11
1.011153657e-11
1.01610354e-11
2.870955637e-12
2.880275145e-12
2.894216552e-12
2.910282288e-12
2.929810458e-12
7.811659478e-13
7.840494266e-13
7.88709887e-13
7.944179661e-13
8.012114175e-13
2.016281889e-13
2.02517959e-13
2.039547503e-13
2.057321761e-13
2.079493515e-13
4.94060061e-14
4.964851927e-14
5.006016707e-14
5.057754351e-14
5.122811889e-14
1.148815759e-14
1.155192976e-14
1.166021087e-14
1.180100817e-14
1.197551777e-14
2.530586713e-15
2.546340146e-15
2.573242462e-15
2.608587477e-15
2.653404306e-15
5.253138504e-16
5.290218814e-16
5.354111747e-16
5.437484605e-16
5.538880728e-16
1.004909198e-16
1.014069737e-16
1.030605698e-16
1.052741913e-16
1.074779754e-16
1.86486591e-17
1.881096502e-17
1.910004634e-17
1.949855759e-17
2.000523385e-17
3.151451976e-18
3.179440759e-18
3.229171887e-18
3.29616878e-18
3.381069632e-18
4.697179616e-19
4.743831066e-19
4.82483904e-19
4.92928042e-19
5.047785662e-19
5.534198088e-20
5.515134222e-20
5.477266277e-20
5.133624761e-20
4.032086685e-20
-6.973302516e-21
-1.601005704e-21
-1.512098415e-21
-1.637366567e-21
-1.633522275e-21
4.538507503e-26
3.967684774e-26
1.949178142e-26
-1.532255112e-26
-1.72457803e-26
2.737406188e-26
2.834140288e-26
2.743512567e-26
2.403139145e-26
4.002711463e-27
-3.919754308e-26
-4.010192384e-26
-8.646850633e-27
2.817009299e-26
1.883478436e-26
-1.15074688e-25
-1.942122776e-25
1.552999592e-26
1.154037021e-25
1.104046042e-25
-2.386869121e-25
-2.44504084e-25
-2.410330746e-25
-1.903113849e-25
-3.087410523e-25
-1.933212296e-27
7.766808465e-27
9.513925081e-27
7.739641558e-27
1.582772855e-26
6.406579567e-09
-5.211234201e-06
-8.206231635e-06
-6.116699915e-06
-1.417520277e-06
-2.507818335e-06
-2.712731881e-06
-2.127113021e-06
-6.102931899e-07
-9.256766005e-08
3.374125387e-07
1.330222832e-06
1.331913584e-06
2.871881379e-06
1.491437185e-06
1.046963298e-05
1.858913513e-05
6.495415828e-05
8.757007942e-05
9.161131333e-05
7.017703562e-05
4.574100754e-05
3.064835957e-05
2.554753833e-05
2.522452622e-05
2.667976456e-05
2.660631807e-05
2.394433827e-05
1.995584069e-05
1.583639568e-05
1.216972304e-05
9.083293236e-06
6.69605604e-06
4.772937089e-06
3.262409506e-06
2.123173656e-06
1.323456478e-06
7.888554043e-07
4.519686379e-07
2.466566126e-07
1.286078337e-07
6.382874456e-08
3.016722426e-08
1.351394002e-08
5.746582116e-09
2.308856128e-09
8.781916951e-10
3.159294823e-10
1.076173729e-10
3.46802559e-11
1.024974287e-11
2.961620004e-12
8.118443031e-13
2.109986173e-13
5.209110571e-14
1.220241602e-14
2.708219169e-15
5.664784725e-16
1.101718179e-16
2.058018016e-17
3.481355023e-18
5.167270556e-19
2.268357316e-20
-1.699479994e-21
-8.17947944e-26
8.815477515e-26
2.13128925e-26
1.627999868e-25
-3.619123379e-25
-5.190842168e-26
-1.683076287e-07
-7.739710536e-09
-3.904610882e-08
-4.092619336e-07
-8.330004899e-09
-5.601258673e-06
2.017620317e-06
-7.312216016e-07
-2.159901031e-07
-6.628332962e-08
-8.960597739e-06
-9.136150471e-06
-3.883634899e-06
-2.539605075e-07
-3.3430243e-08
-6.090506793e-06
-1.944067583e-05
-6.514309207e-05
-6.863197481e-06
7.194346227e-09
-2.796849215e-06
-1.474726496e-06
6.067438877e-06
-4.46676497e-06
-7.435048324e-07
-4.539566522e-06
-9.161948521e-06
-3.587346661e-05
-3.349617101e-06
-9.496642534e-07
-4.384778048e-06
-1.160009592e-05
-3.135711989e-05
-3.542401629e-06
-1.421008397e-07
-4.675958098e-07
-1.860865337e-06
4.199379501e-06
5.208565865e-05
6.740442286e-06
-8.447944175e-07
-1.023240976e-06
-1.13098994e-06
8.425198961e-06
3.757859367e-06
4.728319834e-10
-1.259152576e-06
-1.861635009e-06
6.27867685e-06
6.264000042e-07
2.733165563e-07
2.176666109e-06
6.113031319e-06
1.368695055e-05
3.407825643e-06
1.39499746e-06
3.754207992e-06
7.510513482e-06
2.075372584e-05
-5.279653672e-06
4.034899553e-06
2.941285361e-06
5.463747733e-06
1.859059875e-05
-4.067959082e-05
8.256621061e-07
1.128086534e-06
5.167454479e-06
8.578001211e-06
1.434162879e-05
1.154216909e-06
2.398295425e-06
4.263455017e-06
8.098567197e-06
9.732671057e-06
8.982883828e-06
6.377846801e-06
2.573450097e-06
5.264270441e-06
-2.449625617e-05
2.411819247e-05
3.155678781e-05
2.123541341e-05
-2.544865583e-05
-0.0001508762153
8.41958953e-05
0.0001179804983
0.0001480649305
0.00016982646
0.0002563174155
9.763789541e-05
7.554909589e-05
4.122627628e-05
0.0003207224482
0.0004693189886
9.997629343e-05
7.851554227e-05
1.175573959e-06
-8.2687084e-05
-8.444906808e-05
7.741582069e-05
7.179606338e-05
4.119391332e-05
-1.107144717e-05
-5.159224137e-05
4.782232352e-05
4.514993919e-05
3.474153489e-05
1.716108427e-05
4.804125932e-07
3.04744347e-05
2.757882993e-05
2.248298642e-05
1.622057549e-05
1.028198714e-05
2.415839941e-05
2.212931119e-05
1.951281609e-05
1.678820332e-05
1.434048398e-05
2.432883995e-05
2.290309313e-05
2.13139607e-05
1.974999031e-05
1.822733749e-05
2.593969867e-05
2.475162307e-05
2.343933959e-05
2.202718068e-05
2.049457711e-05
2.586776645e-05
2.476279773e-05
2.34378253e-05
2.193181594e-05
2.02508916e-05
2.350591471e-05
2.249221146e-05
2.121910602e-05
1.973263031e-05
1.808638122e-05
1.969493794e-05
1.884951578e-05
1.774508939e-05
1.644738844e-05
1.501840133e-05
1.561018528e-05
1.495854306e-05
1.408452807e-05
1.304973535e-05
1.191933498e-05
1.198540909e-05
1.150665091e-05
1.085015207e-05
1.007305135e-05
9.223555187e-06
9.025636348e-06
8.674611766e-06
8.19801308e-06
7.631415934e-06
7.009427873e-06
6.63926868e-06
6.396638255e-06
6.057050038e-06
5.653619459e-06
5.205918235e-06
4.731060111e-06
4.567941851e-06
4.336586048e-06
4.054601612e-06
3.742739376e-06
3.235563322e-06
3.133203496e-06
2.980586772e-06
2.793145498e-06
2.582876953e-06
2.115545849e-06
2.054268411e-06
1.959424023e-06
1.840040577e-06
1.705171759e-06
1.321391408e-06
1.28742801e-06
1.231134334e-06
1.159158669e-06
1.076437513e-06
7.897362305e-07
7.719847882e-07
7.403449729e-07
6.987764256e-07
6.504967525e-07
4.51828091e-07
4.432587211e-07
4.263144379e-07
4.03369592e-07
3.76396711e-07
2.474707996e-07
2.435628839e-07
2.349051608e-07
2.228109414e-07
2.083767818e-07
1.294600744e-07
1.278451029e-07
1.236386119e-07
1.17562126e-07
1.101780085e-07
6.453860417e-08
6.395039179e-08
6.202259211e-08
5.91123803e-08
5.551985068e-08
3.058147544e-08
3.041565405e-08
2.958485761e-08
2.826517937e-08
2.660372761e-08
1.375030725e-08
1.37282868e-08
1.339369529e-08
1.282862928e-08
1.210082205e-08
5.857117619e-09
5.872356693e-09
5.74734726e-09
5.519129746e-09
5.218140682e-09
2.362441313e-09
2.378544969e-09
2.335579446e-09
2.248911294e-09
2.131465268e-09
9.017634847e-10
9.118878883e-10
8.984685448e-10
8.675941842e-10
8.243688831e-10
3.257552555e-10
3.308841194e-10
3.271615315e-10
3.168536347e-10
3.018699944e-10
1.113799254e-10
1.136554228e-10
1.127811628e-10
1.095640514e-10
1.046702656e-10
3.603147781e-11
3.693967218e-11
3.678950032e-11
3.585277961e-11
3.434880842e-11
1.068263093e-11
1.099888704e-11
1.099222165e-11
1.074379647e-11
1.032035909e-11
3.099898205e-12
3.207501004e-12
3.217755213e-12
3.155308214e-12
3.040299125e-12
8.5292574e-13
8.869472907e-13
8.932654907e-13
8.788663585e-13
8.495019106e-13
2.22698286e-13
2.32725502e-13
2.353078103e-13
2.323097932e-13
2.252618365e-13
5.519175446e-14
5.796545649e-14
5.884134793e-14
5.829260318e-14
5.670524398e-14
1.298195373e-14
1.370247758e-14
1.396580979e-14
1.388383658e-14
1.354945937e-14
2.895043445e-15
3.071783271e-15
3.143048075e-15
3.135461569e-15
3.069965824e-15
6.09151684e-16
6.500970673e-16
6.682896787e-16
6.698003639e-16
6.580999248e-16
1.171775584e-16
1.302514372e-16
1.340943512e-16
1.341559992e-16
1.317653761e-16
2.229842653e-17
2.394831763e-17
2.44804396e-17
2.466623629e-17
2.56549139e-17
3.789804605e-18
4.072132991e-18
4.141454421e-18
4.051129801e-18
3.91267074e-18
5.524104494e-19
6.095374311e-19
5.78087747e-19
4.161138724e-19
-1.824762705e-19
-1.326347489e-20
7.388243528e-19
-6.563715118e-19
-2.683995835e-19
-1.403583289e-19
-2.86883492e-21
-2.336315926e-21
-4.637232173e-26
-9.086006304e-26
-6.515111846e-26
-3.801844621e-26
-3.307674374e-26
2.679799668e-25
6.08448253e-26
5.232943279e-26
2.922345168e-26
4.502342635e-26
5.268336375e-26
5.504873205e-26
5.961373426e-26
4.11018747e-26
5.327747822e-26
5.55834682e-26
5.664082274e-26
5.929315208e-26
1.117942005e-25
-9.188554922e-26
-1.269637338e-26
-6.009822469e-26
-1.867097825e-25
-2.958227223e-25
-2.834775393e-25
-4.630256766e-25
3.277457216e-25
5.938621131e-26
4.269748231e-26
2.978978864e-26
-4.932832158e-26
5.72613122e-26
5.999840516e-26
2.981400964e-10
-3.059078313e-11
3.289294909e-13
1.091083089e-12
5.53843824e-13
2.405497485e-13
9.90487572e-14
3.842408535e-14
1.414461699e-14
4.918801177e-15
1.60534887e-15
4.771066029e-16
1.130977367e-16
-3.553211295e-41
-3.553236825e-41
-3.552600684e-41
-3.552704084e-41
-3.553304525e-41
-3.553324775e-41
-3.553343926e-41
-3.553362145e-41
-3.553379501e-41
-3.553396054e-41
-3.553411859e-41
-3.553426965e-41
-3.553441417e-41
-3.553455255e-41
-3.553468514e-41
-3.553481226e-41
-3.553493421e-41
-3.553505125e-41
-3.553516361e-41
-3.553527153e-41
-3.553537522e-41
-3.553547486e-41
-3.553557063e-41
-3.553566271e-41
-3.553575125e-41
-3.553583641e-41
-3.553591831e-41
-3.553599712e-41
-3.553607295e-41
-3.553614592e-41
-3.553621614e-41
-3.553628371e-41
-3.553634876e-41
-3.553641138e-41
-3.553647165e-41
-3.553652969e-41
-3.553658556e-41
-3.553663937e-41
-3.553669118e-41
-3.553674108e-41
-3.553678915e-41
-3.553683542e-41
-3.553688083e-41
-3.553693378e-41
-3.553709456e-41
-3.553756387e-41
-3.553812753e-41
7.035950448e-10
7.760739502e-10
1.125592947e-10
1.522809747e-11
3.284191954e-12
9.762933017e-13
3.607048929e-13
1.455321821e-13
5.99246549e-14
2.415961958e-14
9.246336627e-15
3.272542915e-15
1.036407498e-15
2.704747095e-16
1.206800156e-17
-3.55314171e-41
-3.553332684e-41
-3.553973348e-41
-3.554000176e-41
-3.554024733e-41
-3.554047476e-41
-3.55406867e-41
-3.554088515e-41
-3.554107166e-41
-3.554124746e-41
-3.554141359e-41
-3.554157092e-41
-3.554172019e-41
-3.554186207e-41
-3.554199709e-41
-3.554212577e-41
-3.554224852e-41
-3.554236575e-41
-3.554247778e-41
-3.554258494e-41
-3.554268749e-41
-3.554278571e-41
-3.554287982e-41
-3.554297004e-41
-3.554305663e-41
-3.554313969e-41
-3.554321918e-41
-3.554329555e-41
-3.55433691e-41
-3.55434397e-41
-3.554350746e-41
-3.554357259e-41
-3.55436352e-41
-3.55436954e-41
-3.554375329e-41
-3.554380896e-41
-3.554386252e-41
-3.554391404e-41
-3.554396362e-41
-3.554401185e-41
-3.554406343e-41
-3.554415212e-41
-3.554442439e-41
-3.554503972e-41
-3.554561686e-41
-1.815159517e-09
1.027370711e-09
2.809434211e-10
3.206480143e-11
5.729110044e-12
1.789196894e-12
8.048822445e-13
4.297054884e-13
2.289613049e-13
1.136212554e-13
5.122359261e-14
2.069419977e-14
7.425909709e-15
2.33934165e-15
6.193589975e-16
1.11605211e-16
-3.553232939e-41
-3.553922735e-41
-3.553957141e-41
-3.553988047e-41
-3.554016102e-41
-3.55404174e-41
-3.554065321e-41
-3.554087135e-41
-3.554107417e-41
-3.554126356e-41
-3.554144103e-41
-3.554160785e-41
-3.554176509e-41
-3.554191364e-41
-3.554205427e-41
-3.554218763e-41
-3.554231429e-41
-3.554243476e-41
-3.554254948e-41
-3.554265883e-41
-3.554276318e-41
-3.554286284e-41
-3.55429581e-41
-3.554304925e-41
-3.55431365e-41
-3.554321983e-41
-3.554329944e-41
-3.554337595e-41
-3.554344962e-41
-3.55435202e-41
-3.55435878e-41
-3.554365269e-41
-3.554371501e-41
-3.554377487e-41
-3.554383238e-41
-3.554388767e-41
-3.554394086e-41
-3.554399229e-41
-3.554404391e-41
-3.554410665e-41
-3.554423542e-41
-3.554457989e-41
-3.554519017e-41
-3.554565067e-41
2.941012009e-08
-8.842528895e-09
4.885163523e-09
4.676181112e-10
4.961639345e-11
1.034153472e-11
4.220084854e-12
2.272389503e-12
1.251941245e-12
6.497418809e-13
3.064251139e-13
1.296066108e-13
4.879341403e-14
1.624054806e-14
4.738792146e-15
1.180692952e-15
2.216508831e-16
-3.553864526e-41
-3.553909135e-41
-3.553947743e-41
-3.553981948e-41
-3.554012648e-41
-3.554040452e-41
-3.554065814e-41
-3.554089095e-41
-3.554110586e-41
-3.55413052e-41
-3.55414909e-41
-3.55416645e-41
-3.554182733e-41
-3.554198048e-41
-3.554212487e-41
-3.554226129e-41
-3.554239043e-41
-3.554251288e-41
-3.554262916e-41
-3.554273972e-41
-3.554284498e-41
-3.554294529e-41
-3.554304095e-41
-3.554313231e-41
-3.554321971e-41
-3.554330306e-41
-3.554338238e-41
-3.554345852e-41
-3.554353185e-41
-3.554360211e-41
-3.55436693e-41
-3.554373369e-41
-3.554379549e-41
-3.554385482e-41
-3.554391179e-41
-3.554396662e-41
-3.554402008e-41
-3.55440764e-41
-3.554415491e-41
-3.554432438e-41
-3.554471247e-41
-3.554528902e-41
-3.554567436e-41
-3.690473641e-08
-3.698679491e-08
-8.128487047e-10
2.136566111e-09
3.056633329e-10
6.286651523e-11
2.402602402e-11
1.209767757e-11
6.371163558e-12
3.22138541e-12
1.508398798e-12
6.413056036e-13
2.460891434e-13
8.403192621e-14
2.526871363e-14
6.613077435e-15
1.456598296e-15
2.436863915e-16
-3.553851639e-41
-3.553901708e-41
-3.553944122e-41
-3.553981017e-41
-3.554013729e-41
-3.554043104e-41
-3.554069725e-41
-3.554094026e-41
-3.554116346e-41
-3.554136954e-41
-3.554156069e-41
-3.55417387e-41
-3.554190507e-41
-3.554206103e-41
-3.554220762e-41
-3.554234574e-41
-3.554247616e-41
-3.554259952e-41
-3.554271642e-41
-3.554282735e-41
-3.554293276e-41
-3.554303301e-41
-3.554312847e-41
-3.55432196e-41
-3.554330668e-41
-3.554338956e-41
-3.554346835e-41
-3.554354379e-41
-3.554361639e-41
-3.554368606e-41
-3.554375265e-41
-3.554381636e-41
-3.554387748e-41
-3.55439362e-41
-3.554399292e-41
-3.55440494e-41
-3.554411264e-41
-3.554420918e-41
-3.55444147e-41
-3.554482701e-41
-3.554536634e-41
-3.55456924e-41
-1.84392983e-07
-1.805924257e-08
-2.020865151e-08
-2.071172115e-09
1.382193223e-09
3.188471389e-10
9.8508324e-11
4.274487177e-11
2.120942077e-11
1.045449913e-11
4.833335153e-12
2.046296998e-12
7.826554306e-13
2.676008773e-13
8.098536432e-14
2.162423089e-14
4.987889067e-15
9.749964344e-16
1.143284094e-16
-3.553845575e-41
-3.553899783e-41
-3.553945187e-41
-3.5539842e-41
-3.554018438e-41
-3.554048949e-41
-3.554076439e-41
-3.554101414e-41
-3.55412426e-41
-3.554145277e-41
-3.554164709e-41
-3.554182753e-41
-3.55419957e-41
-3.554215296e-41
-3.554230043e-41
-3.554243909e-41
-3.554256976e-41
-3.554269315e-41
-3.554280987e-41
-3.554292046e-41
-3.554302537e-41
-3.554312502e-41
-3.554321983e-41
-3.554331023e-41
-3.554339653e-41
-3.554347868e-41
-3.554355675e-41
-3.554363124e-41
-3.554370277e-41
-3.554377155e-41
-3.55438374e-41
-3.554390032e-41
-3.554396072e-41
-3.55440195e-41
-3.554407958e-41
-3.554415148e-41
-3.554426816e-41
-3.554450388e-41
-3.554492754e-41
-3.554543165e-41
-3.554570858e-41
-8.184921171e-08
-9.500486348e-09
-3.871481473e-08
-4.252280306e-08
-2.165047114e-09
9.488786469e-10
2.487489831e-10
9.833165978e-11
4.894894048e-11
2.481356906e-11
1.181278229e-11
5.119772521e-12
1.99263176e-12
6.915882354e-13
2.131880296e-13
5.809828865e-14
1.376587911e-14
2.860928372e-15
4.699350696e-16
-3.553778704e-41
-3.553847262e-41
-3.553903682e-41
-3.553950851e-41
-3.55399117e-41
-3.554026351e-41
-3.554057544e-41
-3.554085531e-41
-3.554110869e-41
-3.554133976e-41
-3.554155177e-41
-3.554174731e-41
-3.554192848e-41
-3.554209699e-41
-3.554225427e-41
-3.554240151e-41
-3.554253973e-41
-3.55426698e-41
-3.554279244e-41
-3.554290831e-41
-3.554301794e-41
-3.554312185e-41
-3.554322049e-41
-3.554331425e-41
-3.554340353e-41
-3.554348867e-41
-3.554356979e-41
-3.554364695e-41
-3.554372037e-41
-3.554379065e-41
-3.554385821e-41
-3.554392318e-41
-3.554398568e-41
-3.5544047e-41
-3.554411155e-41
-3.554419324e-41
-3.554433021e-41
-3.554459051e-41
-3.554501722e-41
-3.55454893e-41
-3.55457215e-41
5.380558319e-07
6.722059128e-09
-6.39395665e-08
-6.296804129e-08
-3.209708082e-08
4.290317523e-09
1.057368336e-09
2.846726794e-10
1.217676901e-10
5.985210991e-11
2.837614472e-11
1.226132999e-11
4.74366555e-12
1.633896677e-12
5.004872904e-13
1.362334371e-13
3.256202103e-14
6.990350389e-15
1.281907201e-15
1.509724512e-16
-3.553788344e-41
-3.553856831e-41
-3.55391357e-41
-3.553961144e-41
-3.554001813e-41
-3.554037253e-41
-3.554068621e-41
-3.554096716e-41
-3.554122108e-41
-3.554145226e-41
-3.554166403e-41
-3.554185904e-41
-3.554203946e-41
-3.554220703e-41
-3.554236323e-41
-3.554250929e-41
-3.554264624e-41
-3.554277497e-41
-3.554289623e-41
-3.554301067e-41
-3.554311888e-41
-3.554322138e-41
-3.554331861e-41
-3.554341097e-41
-3.55434988e-41
-3.554358249e-41
-3.554366231e-41
-3.554373833e-41
-3.554381067e-41
-3.554387966e-41
-3.554394596e-41
-3.554401044e-41
-3.554407496e-41
-3.554414522e-41
-3.55442384e-41
-3.554439485e-41
-3.554467459e-41
-3.55450991e-41
-3.554554224e-41
-3.554573375e-41
5.187782718e-07
9.108562556e-08
-4.635269722e-08
-8.958077247e-08
-1.037444512e-07
1.415147259e-08
7.451529972e-09
1.200717335e-09
3.649393358e-10
1.554287664e-10
6.902180705e-11
2.853902755e-11
1.065063861e-11
3.558725696e-12
1.063677872e-12
2.847440064e-13
6.765772373e-14
1.474235183e-14
2.857023993e-15
4.444451859e-16
-3.553725241e-41
-3.553805522e-41
-3.55387257e-41
-3.553928385e-41
-3.553975362e-41
-3.554015615e-41
-3.554050733e-41
-3.554081831e-41
-3.554109685e-41
-3.554134854e-41
-3.554157759e-41
-3.554178728e-41
-3.554198024e-41
-3.554215862e-41
-3.554232417e-41
-3.554247836e-41
-3.554262242e-41
-3.554275739e-41
-3.554288416e-41
-3.55430035e-41
-3.554311607e-41
-3.554322246e-41
-3.554332318e-41
-3.554341868e-41
-3.554350934e-41
-3.554359551e-41
-3.554367756e-41
-3.554375583e-41
-3.554383049e-41
-3.554390172e-41
-3.554396997e-41
-3.554403649e-41
-3.554410403e-41
-3.554418049e-41
-3.554428612e-41
-3.554446081e-41
-3.554475547e-41
-3.554517426e-41
-3.554559132e-41
-3.554574402e-41
5.18831371e-07
1.771010306e-07
-1.62674238e-08
-1.191442867e-07
-1.834100002e-07
-8.501608411e-09
4.267599258e-08
4.857562913e-09
1.013921837e-09
3.714839279e-10
1.535349982e-10
6.04414779e-11
2.165271019e-11
6.980634004e-12
2.027319729e-12
5.326971086e-13
1.257576564e-13
2.778162751e-14
5.608844334e-15
9.823365711e-16
9.305947572e-17
-3.553749032e-41
-3.553827e-41
-3.553892149e-41
-3.553946505e-41
-3.553992376e-41
-3.554031772e-41
-3.554066199e-41
-3.55409672e-41
-3.554124079e-41
-3.554148812e-41
-3.554171325e-41
-3.554191937e-41
-3.554210902e-41
-3.554228429e-41
-3.554244689e-41
-3.554259828e-41
-3.554273967e-41
-3.554287208e-41
-3.554299639e-41
-3.554311337e-41
-3.554322369e-41
-3.554332792e-41
-3.554342657e-41
-3.554352006e-41
-3.55436088e-41
-3.554369314e-41
-3.554377342e-41
-3.554384999e-41
-3.554392325e-41
-3.554399373e-41
-3.554406284e-41
-3.554413415e-41
-3.554421786e-41
-3.554433628e-41
-3.554452771e-41
-3.554483349e-41
-3.554524428e-41
-3.554563771e-41
-3.554575336e-41
1.291752793e-06
2.853380573e-06
6.643072852e-07
-9.565886756e-08
-2.511540425e-07
-1.682264038e-07
9.818203696e-08
2.052175248e-08
3.203420801e-09
9.464504173e-10
3.433926873e-10
1.236637825e-10
4.131121445e-11
1.260046386e-11
3.514298723e-12
9.025707856e-13
2.120286717e-13
4.760710513e-14
1.003814607e-14
1.914520075e-15
2.792231649e-16
-3.553686603e-41
-3.553775669e-41
-3.553851123e-41
-3.553914126e-41
-3.553966762e-41
-3.554011277e-41
-3.554049581e-41
-3.554083105e-41
-3.554112859e-41
-3.554139551e-41
-3.554163698e-41
-3.554185689e-41
-3.554205829e-41
-3.554224363e-41
-3.554241493e-41
-3.554257386e-41
-3.554272181e-41
-3.554285997e-41
-3.554298934e-41
-3.554311079e-41
-3.554322507e-41
-3.554333282e-41
-3.554343461e-41
-3.554353094e-41
-3.554362223e-41
-3.554370888e-41
-3.554379126e-41
-3.554386974e-41
-3.55439448e-41
-3.554401733e-41
-3.554408933e-41
-3.554416548e-41
-3.55442575e-41
-3.554438876e-41
-3.554459527e-41
-3.554490912e-41
-3.554531058e-41
-3.554568239e-41
-3.554576179e-41
-8.277122616e-07
2.573519556e-07
2.468304034e-08
-1.548017952e-07
-3.454564848e-07
-4.268270631e-07
1.145422998e-07
7.330836069e-08
1.102644825e-08
2.418930487e-09
7.245546397e-10
2.314659884e-10
7.072203091e-11
2.017453048e-11
5.391004439e-12
1.362514917e-12
3.233203311e-13
7.5449665e-14
1.670185996e-14
3.397330252e-15
5.857745431e-16
1.381691982e-17
-3.553720112e-41
-3.553805562e-41
-3.553877793e-41
-3.553938152e-41
-3.553988716e-41
-3.554031615e-41
-3.554068629e-41
-3.554101085e-41
-3.554129928e-41
-3.554155829e-41
-3.554179278e-41
-3.554200646e-41
-3.554220226e-41
-3.554238253e-41
-3.554254919e-41
-3.554270385e-41
-3.554284786e-41
-3.554298236e-41
-3.554310832e-41
-3.554322658e-41
-3.554333787e-41
-3.554344281e-41
-3.554354195e-41
-3.554363578e-41
-3.554372473e-41
-3.554380921e-41
-3.554388965e-41
-3.554396667e-41
-3.554404151e-41
-3.554411677e-41
-3.554419833e-41
-3.55442992e-41
-3.554444301e-41
-3.554466275e-41
-3.554498189e-41
-3.554537308e-41
-3.554572513e-41
-3.55457693e-41
-2.173916895e-06
-5.544114894e-07
-1.369804223e-07
-2.683575601e-07
-5.594139979e-07
-7.83567843e-07
-5.192448288e-08
2.706886943e-07
2.436188679e-08
5.932608566e-09
1.438126007e-09
3.859428088e-10
1.045301925e-10
2.761669607e-11
7.119020591e-12
1.803397988e-12
4.419756482e-13
1.087317411e-13
2.557505836e-14
5.571071122e-15
1.060545111e-15
1.244685026e-16
-3.553665914e-41
-3.553758867e-41
-3.553839192e-41
-3.553907151e-41
-3.553964169e-41
-3.554012201e-41
-3.554053174e-41
-3.554088675e-41
-3.554119898e-41
-3.5541477e-41
-3.554172702e-41
-3.55419536e-41
-3.554216027e-41
-3.554234978e-41
-3.554252437e-41
-3.554268587e-41
-3.554283581e-41
-3.554297549e-41
-3.554310599e-41
-3.554322826e-41
-3.554334308e-41
-3.554345117e-41
-3.554355311e-41
-3.554364945e-41
-3.554374067e-41
-3.554382725e-41
-3.554390968e-41
-3.55439888e-41
-3.554406628e-41
-3.554414525e-41
-3.554423272e-41
-3.554434281e-41
-3.554449887e-41
-3.554473011e-41
-3.554505221e-41
-3.554543249e-41
-3.554576634e-41
-3.554577561e-41
-6.201626384e-07
-9.523256103e-07
-3.423196647e-07
-4.896259978e-07
-1.043484086e-06
-1.433661598e-06
-4.062973284e-07
5.469817191e-07
8.69731212e-08
1.492764702e-08
2.857899041e-09
6.226821657e-10
1.444204634e-10
3.46695668e-11
8.623620155e-12
2.215029485e-12
5.666971912e-13
1.469781746e-13
3.641377982e-14
8.350618914e-15
1.708326176e-15
2.657502614e-16
-3.553620916e-41
-3.553716895e-41
-3.553802216e-41
-3.553876036e-41
-3.553938803e-41
-3.553991872e-41
-3.554036963e-41
-3.554075723e-41
-3.554109507e-41
-3.554139342e-41
-3.554165985e-41
-3.554189992e-41
-3.554211784e-41