/*--------------------------------*- C++ -*----------------------------------*\
  =========                 |
  \\      /  F ield         | OpenFOAM: The Open Source CFD Toolbox
   \\    /   O peration     | Website:  https://openfoam.org
    \\  /    A nd           | Version:  10
     \\/     M anipulation  |
\*---------------------------------------------------------------------------*/
FoamFile
{
    format      ascii;
    class       volScalarField;
    location    "0.02499901733";
    object      ddt0(rho,H);
}
// * * * * * * * * * * * * * * * * * * * * * * * * * * * * * * * * * * * * * //

dimensions      [1 -3 -1 0 0 0 0];

internalField   nonuniform List<scalar> 
5170
(
1.507534571e-55
1.194984535e-55
7.108658872e-56
3.412163719e-56
2.191773283e-56
5.178103347e-53
4.050558819e-53
2.348879841e-53
1.267688514e-53
1.885026613e-53
1.796165098e-50
1.391059161e-50
8.028811897e-51
5.639877569e-51
1.511033167e-50
6.344146786e-48
4.895144718e-48
2.909033778e-48
2.879021553e-48
1.110758319e-47
2.287948455e-45
1.775179131e-45
1.130313923e-45
1.585723732e-45
7.605883191e-45
8.435690836e-43
6.667497899e-43
4.730502873e-43
9.086788301e-43
4.938223507e-42
3.185680879e-40
2.604977336e-40
2.126049816e-40
5.322140752e-40
3.085959751e-39
1.232655889e-37
1.061153559e-37
1.019455477e-37
3.156222019e-37
1.877529942e-36
4.889909484e-35
4.510761239e-35
5.172296195e-35
1.893911431e-34
1.121117502e-33
1.985632164e-32
1.998557412e-32
2.762083329e-32
1.150742025e-31
6.608152275e-31
8.239181973e-30
9.19881348e-30
1.537280811e-29
7.087112892e-29
3.8613015e-28
3.478832666e-27
4.375483525e-27
8.870406904e-27
4.419241722e-26
2.24082754e-25
1.487597657e-24
2.135504704e-24
5.23543772e-24
2.780310547e-23
1.29437546e-22
6.39764693e-22
1.058528079e-21
3.125843495e-21
1.753110963e-20
7.450866406e-20
2.742584676e-19
5.278234319e-19
1.861404153e-18
1.095146372e-17
4.279530727e-17
1.161038563e-16
2.61484234e-16
1.092923329e-15
6.704614424e-15
2.452633e-14
4.769086001e-14
1.267596837e-13
6.206146177e-13
3.954794433e-12
1.404573622e-11
1.875246589e-11
6.001789878e-11
3.382918275e-10
2.217186114e-09
8.038354936e-09
6.697495681e-09
2.661533632e-08
5.711900921e-08
5.61068373e-08
4.960411353e-08
6.180827061e-08
2.118795497e-09
5.69143212e-08
-7.286987243e-08
-7.846654562e-08
-4.321412594e-05
-4.820641956e-05
-4.523060484e-05
-4.827658482e-05
-4.225395119e-05
-0.0001197257905
6.410878624e-05
5.980283809e-05
5.710956439e-05
-0.0001355186869
1.015057983e-05
4.772768273e-06
9.555226284e-06
-2.298356964e-05
-2.747714885e-06
-8.268294675e-05
6.384501244e-06
8.651363113e-06
-1.967830441e-05
3.188811871e-05
1.970136644e-05
3.276621916e-05
3.539190502e-05
-8.859947046e-06
-2.210572384e-05
2.589731446e-05
-1.757205229e-05
-1.702027105e-05
-2.290769031e-05
1.8999557e-06
-1.85932675e-06
3.04446657e-05
3.484340028e-05
1.153768829e-05
-3.597707018e-05
-3.326434641e-05
-6.703883702e-07
8.67199879e-06
2.923465697e-06
4.120953502e-06
7.956128065e-06
-2.436971515e-05
-4.064617421e-05
1.496416738e-05
3.711194036e-05
3.247041493e-05
1.44984369e-05
1.975309942e-05
4.894824913e-05
-1.067738055e-05
-1.216882252e-05
3.528574394e-05
3.881265989e-05
3.98785861e-05
-3.214244712e-06
-3.595424316e-06
3.989906858e-05
4.099161821e-05
-9.975063514e-06
-5.667444905e-06
-5.837357e-06
-4.004331546e-06
-1.125058553e-05
-3.35772677e-06
-7.718370697e-06
-7.689560262e-06
-4.597748503e-06
-4.339352348e-06
-6.546003087e-06
-8.762953754e-06
-8.05300022e-06
-6.744135564e-06
-6.432792337e-06
-7.80443392e-06
-8.834098785e-06
-8.871658215e-06
-7.569162814e-06
-7.627045605e-06
-8.0239249e-06
-8.827001413e-06
-9.046733331e-06
-8.366633758e-06
-8.205212355e-06
-8.470117639e-06
-8.734265088e-06
-8.7951792e-06
-8.806462484e-06
-8.677954713e-06
-8.725173292e-06
-8.574405954e-06
-8.337282779e-06
-8.640762606e-06
-8.789120697e-06
-8.802420634e-06
-8.378903143e-06
-1.61120413e-05
3.18828345e-05
-7.036231899e-06
-8.06878484e-06
2.177824126e-06
3.100003572e-08
-3.636747185e-08
1.096999855e-07
1.28085085e-05
-4.182712928e-06
-6.338469621e-08
-8.336877534e-08
-3.785118018e-07
7.472522031e-06
-3.037080977e-07
-1.477839605e-07
-5.829294699e-08
4.071266411e-06
1.080809703e-06
6.342166878e-07
-7.925717884e-08
-6.673298676e-08
3.5834107e-06
3.066240822e-09
6.961371548e-07
-2.63191278e-08
5.026712412e-07
1.321601552e-05
-3.156478341e-07
3.41154193e-06
-4.541110688e-08
5.181184553e-09
3.607123812e-06
-4.181987917e-07
-2.975601889e-06
6.225508926e-08
5.767103064e-08
-1.210030831e-06
-7.760781351e-08
1.235434466e-07
-8.672744459e-09
-1.530476041e-08
-3.002972594e-07
-1.28057326e-06
-8.59048253e-06
3.474455013e-09
7.275962225e-07
1.139112656e-07
3.990146523e-07
-3.946071006e-07
-1.722632974e-08
6.259513183e-08
1.150860266e-07
1.127067588e-06
5.720814623e-06
-3.009583453e-08
5.652230628e-08
-3.208185423e-08
1.003728943e-07
2.545211083e-06
-8.942436047e-09
-7.643793979e-10
-4.932898386e-08
-2.59470261e-07
-7.342489658e-07
-2.919366752e-08
7.328466509e-09
6.793707541e-08
5.438840599e-07
3.327183117e-06
3.905461161e-09
-9.49932791e-10
-6.565519154e-09
2.835793786e-08
3.632812857e-07
8.16560583e-09
2.880538894e-08
3.238746263e-08
1.165006498e-08
-3.054740859e-08
-1.222918204e-08
1.75202665e-08
5.225368873e-08
6.777122346e-07
1.878443069e-06
-1.558995738e-08
-3.217358394e-08
-1.358492631e-07
-9.150273612e-07
-4.677508376e-06
-7.744301922e-08
-1.249390294e-07
-7.066903055e-07
-8.754636399e-07
-2.879603634e-06
1.925829527e-07
6.710408941e-07
3.248632684e-06
1.364694001e-05
4.861814401e-05
3.189443881e-07
1.054166193e-06
4.360574597e-06
1.662224027e-05
5.577981502e-05
2.153129725e-07
7.757060168e-07
2.82943468e-06
9.043888062e-06
2.622338514e-05
4.050195173e-07
7.364605726e-07
1.512691589e-06
3.546072472e-06
8.30587473e-06
7.570839902e-07
8.371775413e-07
1.140882171e-06
1.724158206e-06
2.845138322e-06
6.141922628e-07
6.04923745e-07
7.395367798e-07
8.215375422e-07
1.028907058e-06
2.605185938e-07
2.634427646e-07
2.691202129e-07
2.507954896e-07
3.163357234e-07
6.577470701e-08
6.55549074e-08
6.724616677e-08
6.467645083e-08
5.986997748e-08
1.415905956e-08
1.407269471e-08
1.384286705e-08
1.245566052e-08
1.112397077e-08
2.879975481e-09
2.830127552e-09
2.55953342e-09
1.275041316e-09
2.490292141e-09
5.666491147e-10
5.581748908e-10
5.020695406e-10
3.25888639e-10
3.773039542e-10
1.953634929e-10
1.222946743e-10
1.011127767e-10
8.251910545e-11
3.9755935e-11
-5.87658942e-11
-1.818932987e-10
-4.128700393e-12
1.205809227e-11
1.845823492e-11
-1.68147889e-13
-1.666721643e-13
4.238068384e-12
7.215381887e-12
4.661359195e-12
1.585644252e-12
1.526679523e-12
1.538585185e-12
1.141181965e-12
1.212497113e-12
3.760345385e-13
3.676829165e-13
3.300383127e-13
1.915322216e-13
-5.438964009e-13
1.402885161e-13
1.376097064e-13
1.248666716e-13
8.92523073e-14
4.965208421e-14
5.832933676e-15
6.878917026e-15
1.288167507e-14
5.054356951e-14
-3.140600762e-14
2.561087668e-14
2.331000535e-14
1.98041963e-14
9.724605148e-15
2.598636044e-15
8.369034949e-14
8.097043603e-14
7.59622858e-14
6.316361955e-14
5.793516637e-14
1.104578977e-13
1.100558951e-13
1.03947779e-13
8.544921604e-14
8.11154665e-14
9.589992028e-14
2.037653762e-13
2.227117618e-13
1.63174855e-13
2.071959431e-13
7.975087858e-14
7.896449821e-14
4.37643846e-14
7.095105325e-14
8.435714881e-14
-1.111894057e-13
-1.061327644e-13
-1.06228845e-13
-1.039531635e-13
-1.211257284e-13
6.490001723e-14
6.666275189e-14
6.971477988e-14
6.777577488e-14
1.066707521e-13
1.139038634e-13
1.089252493e-13
1.522129324e-13
-5.89467221e-14
-7.939165282e-14
1.228054956e-13
9.397354609e-14
2.111513435e-14
3.523030084e-14
7.421370643e-14
2.75755078e-13
2.024926901e-13
6.033165131e-14
2.266966914e-14
2.024031203e-13
1.181844564e-13
2.062617066e-14
-5.038792894e-13
-5.265886694e-13
-6.411399855e-13
-2.52232133e-14
-2.351211633e-14
-1.267860083e-14
-2.597761732e-15
8.80703115e-15
4.72794811e-14
4.692238943e-14
4.519957483e-14
5.205375181e-14
4.426596098e-14
-3.403020871e-13
-2.224584027e-13
3.60151747e-13
1.087022471e-13
4.974613865e-14
6.522608853e-14
7.339104892e-14
6.956513306e-14
-2.64948336e-14
1.582395645e-13
-2.189755367e-13
-2.171859309e-13
-2.28970099e-13
-3.541560913e-13
-3.286294581e-13
-2.562043894e-13
-2.552023711e-13
-2.353750068e-13
-1.792989978e-13
-4.764167409e-14
-3.025996301e-14
-1.911670682e-14
3.412790446e-14
-5.980293253e-14
-1.070954294e-13
3.634035836e-13
3.694852696e-13
3.786417725e-13
3.867266853e-13
3.746463651e-13
-1.115119875e-13
-1.100403627e-13
-1.062109432e-13
-9.206188344e-14
-1.225108524e-13
-1.350187754e-13
-1.336067871e-13
-1.309300403e-13
-1.27049672e-13
-1.12996454e-13
-1.082814735e-13
-1.324119393e-13
-1.174751395e-13
-7.674809861e-14
-7.991519939e-14
-4.027771669e-14
-2.385788569e-14
-6.354726115e-14
-7.573406934e-14
-8.440472552e-14
1.263043759e-13
1.258549809e-13
1.24258841e-13
1.206390254e-13
1.133404884e-13
6.090759349e-14
5.97064771e-14
5.658883842e-14
5.166538762e-14
4.613525546e-14
7.397287743e-14
7.465877731e-14
7.698981153e-14
7.610670694e-14
5.825449003e-14
-5.233768787e-13
-5.175247702e-13
-4.992651865e-13
-4.457526652e-13
-3.842841947e-13
1.284357935e-13
3.727448972e-14
7.205151059e-14
1.829484326e-14
9.884131597e-15
5.184520117e-14
5.790974163e-14
6.290279901e-14
6.562946178e-14
5.979384639e-14
3.751586802e-14
4.623209692e-14
7.999794927e-14
1.084856715e-13
-6.925880193e-13
3.736300711e-13
3.824719315e-13
3.840291422e-13
3.532023129e-13
2.648861589e-13
2.505877208e-13
2.588401826e-13
2.629281436e-13
2.501181207e-13
1.946837341e-13
1.559458971e-13
1.689317381e-13
1.959589815e-13
2.014566718e-13
2.775773513e-13
-1.497915376e-12
-1.504436214e-12
-1.510933175e-12
-1.509025494e-12
-1.464130962e-12
2.192644233e-05
-1.688172891e-05
-5.956670624e-06
1.072731557e-06
4.258891094e-05
-4.184181538e-05
1.437690821e-08
-8.116690073e-06
-5.39507981e-06
-1.566579326e-06
7.988568783e-06
-2.514342231e-06
1.304887953e-05
-6.2504749e-07
1.29720874e-06
4.137232978e-06
-1.175252189e-05
-8.398373074e-06
0.0001113128009
0.0001284119059
5.567919447e-05
1.560714013e-05
4.306775544e-06
1.254769571e-06
3.186851034e-07
5.8948948e-08
1.118277049e-08
3.11753024e-09
4.337258452e-10
2.198445679e-11
1.583668583e-11
4.140233341e-12
1.118147938e-12
-3.296713465e-13
1.780045224e-14
-6.906990331e-14
-1.172962902e-14
5.626982917e-14
1.042887035e-13
1.905642483e-13
-2.744655551e-14
1.08775317e-13
1.002069801e-13
-8.840505624e-14
1.042146513e-13
-1.771315116e-13
2.924017405e-13
2.323518458e-14
1.266780573e-14
-2.265832018e-14
-2.574169873e-14
2.765104105e-14
1.322303144e-13
1.611046931e-13
3.433052658e-13
-1.076885967e-13
-1.466922597e-13
-7.23700496e-14
-2.789832545e-14
1.014845146e-13
3.670700446e-14
-5.991560572e-14
-3.413140133e-13
-2.295676638e-15
4.42640116e-14
-1.369482184e-13
2.70515637e-13
2.394393229e-13
4.800838915e-13
-1.416251452e-12
0.0005655059086
0.000363583266
-0.0001115650462
1.770851497e-06
4.103772292e-08
-2.218909672e-05
-0.0001404299218
-0.0002036595647
0.0001061670588
5.388558612e-06
1.508997728e-06
5.674887656e-05
-0.0001097819271
0.0002366719549
7.639673504e-06
1.720227589e-05
0.0001612856416
0.0006103699699
0.0004036554166
-2.850078217e-05
0.0002968624664
4.784843603e-05
0.0002251203106
-0.0005089730093
1.23113398e-05
-0.0003120042733
6.183406332e-06
6.595909868e-05
0.0001285778929
0.0002844653826
-2.888958458e-06
-1.076923343e-05
-6.270996798e-05
-0.0001886575674
0.000488297412
-1.382726956e-05
-2.574538577e-05
-0.0001299561255
-0.0009715488323
4.906958015e-05
3.372189393e-06
-1.066979793e-05
-4.948633347e-05
-0.0001879757864
-0.0001981708566
2.720180487e-06
-1.526145474e-05
-1.926181102e-05
2.676453011e-05
-8.807647093e-05
1.412654776e-05
1.736711205e-06
2.982920266e-05
4.87907732e-05
7.918334336e-05
-7.515988884e-06
2.188054728e-05
2.51922795e-05
0.0001186582788
0.0003165320214
4.340156334e-05
0.0001060134266
4.121776776e-05
8.080154744e-05
8.732787051e-05
6.041890402e-07
3.1256001e-05
-4.064458557e-05
-3.485722459e-05
-0.0001315466805
-3.029741232e-06
1.93315446e-05
8.024557809e-06
-7.488413473e-05
-0.0002646441703
-7.228724825e-06
8.811839123e-06
-6.199783898e-05
-0.0001211764185
-0.0006506873969
-1.739995795e-05
-0.0001755937066
-0.0001057489632
-0.0005637397422
-0.002165007799
-1.690556693e-05
-8.281615082e-05
-0.0003253476905
-0.001310073493
-0.004451797435
0.000186886879
0.0002792176696
-0.001213064091
-0.01301578963
-0.076206921
0.0002638485173
0.0007166410696
0.001133322861
8.298434024e-07
-0.005356517567
0.0001188195652
0.0003295708639
0.0006446688317
0.0007528249882
0.0003534825313
3.199397887e-05
8.225433492e-05
0.0001602207863
0.0002160763405
0.000181356024
7.54012968e-06
1.601704368e-05
2.769804927e-05
3.587055169e-05
3.142056909e-05
1.765383331e-06
2.791662915e-06
3.953310283e-06
4.614780029e-06
3.970784335e-06
3.684906963e-07
4.488505312e-07
5.159513673e-07
5.293158237e-07
4.358360435e-07
6.096025519e-08
5.990253053e-08
5.616367221e-08
5.000315478e-08
3.943435263e-08
1.052917956e-08
9.22383397e-09
6.921795305e-09
6.223731864e-09
8.009703633e-09
2.178026484e-09
1.553936959e-09
5.883775887e-10
-3.651731949e-09
2.588767634e-10
3.892596983e-10
3.949685723e-10
2.900498897e-10
2.542843707e-11
-1.033711726e-11
5.953672682e-12
-2.364712321e-11
3.420929554e-11
3.008753513e-11
1.074499255e-11
1.643894873e-11
9.073961973e-12
1.178510264e-11
-2.185265634e-12
-2.995543049e-12
5.241376828e-12
1.322828428e-11
1.258542821e-11
3.29155496e-12
1.405834465e-12
9.641410373e-13
9.232549752e-13
8.747051159e-13
-1.667658245e-13
-3.243461733e-13
3.654322008e-13
3.693947845e-13
3.362534066e-13
2.443567686e-13
-4.42950786e-14
-1.353529663e-14
-5.586780772e-14
-1.214426868e-13
-8.053432407e-14
-5.698587891e-15
-1.15609018e-13
-1.0384286e-13
-8.718559563e-14
-9.660205255e-14
-1.286991653e-13
-3.745634272e-14
-9.596100981e-14
-8.14638077e-14
-5.120447518e-14
4.763747852e-14
8.334581239e-14
2.031944535e-14
3.086587382e-14
1.861279586e-14
1.677128808e-13
1.542312829e-13
1.742430302e-13
5.591315661e-14
8.536287779e-14
1.922437344e-13
9.532991625e-14
8.343017452e-14
1.075140117e-13
2.521939668e-13
9.433558407e-14
7.096908806e-14
7.450314792e-14
1.177895744e-13
1.42939845e-13
9.144009442e-14
4.547102389e-14
7.657175803e-14
1.064493351e-13
1.595366382e-13
-3.454148836e-14
4.457831427e-14
5.699495447e-15
-5.465645712e-14
-9.476292425e-14
1.159356121e-13
6.786382433e-15
6.687547454e-14
1.137609569e-13
1.452935965e-13
1.243512768e-13
6.405419005e-14
5.456800585e-15
1.097693911e-13
-4.730587042e-13
-4.518599194e-13
-5.287115753e-15
-4.375345146e-13
-4.39532298e-13
3.597946137e-14
1.544006563e-14
1.370536238e-13
-7.041452078e-14
2.303210209e-14
1.305647011e-14
-4.386318856e-14
2.78513741e-14
4.346023505e-14
3.127837331e-14
-2.524399352e-14
3.032395723e-13
-1.293237393e-14
-3.088477415e-13
3.225104689e-13
-5.497959468e-14
-2.096379226e-14
-1.95865397e-14
4.863684095e-14
-2.595305713e-14
-1.589774049e-13
-2.53804237e-13
-2.406318268e-13
-2.795320354e-13
-3.946455817e-13
1.947646963e-13
-1.39229988e-13
1.192689616e-13
-1.398484208e-13
-1.578205271e-13
-1.717619131e-13
-1.574414114e-13
1.141129995e-13
-1.204913735e-13
-9.566312005e-14
-1.606658137e-13
3.655289011e-13
4.062769109e-13
4.295754255e-13
3.950718156e-13
-2.958006751e-14
-3.628059903e-14
3.812797527e-13
-2.622016128e-14
-6.167897848e-14
-1.691939266e-14
-7.06969956e-15
-1.07894832e-13
-1.199758307e-13
-1.142607086e-13
-9.340325901e-14
-2.41669795e-14
-9.138899409e-14
-8.595486901e-14
1.489940789e-14
-1.159834911e-13
-1.104940095e-13
-1.459226222e-13
-1.614359271e-13
-8.272843131e-14
-4.549083294e-14
1.395571896e-13
-5.083426132e-14
1.491447796e-13
1.412922184e-13
1.273881996e-13
1.3060474e-13
1.149741913e-13
1.158393181e-13
1.19540936e-13
1.293316008e-13
1.471348876e-13
5.679648819e-14
7.183107896e-14
8.405793851e-14
1.399201394e-14
-2.821687754e-13
-5.868440516e-13
-3.622491112e-13
-2.693507846e-13
-1.69778222e-13
-7.51363775e-13
-2.123368209e-13
-2.508334343e-13
2.053818464e-13
1.590701312e-13
1.566524525e-13
6.155688769e-14
9.041721591e-14
9.858081707e-14
1.073258224e-13
1.213921847e-13
9.859924929e-14
1.204993933e-13
1.450051989e-13
2.293834304e-13
-5.086339476e-13
6.036452087e-13
7.371556894e-13
7.499450493e-13
7.510350034e-13
7.758832752e-13
4.088484457e-13
4.670203707e-13
4.713102728e-13
5.579597601e-13
7.143470651e-13
4.646785608e-13
6.613388101e-13
7.024218626e-13
6.913409564e-13
7.036399329e-13
5.615864551e-13
4.875079573e-13
-2.194230366e-12
-1.288035237e-12
-1.512476378e-12
-1.66808354e-12
-1.678328152e-12
-1.692692485e-12
-1.35662447e-12
-1.386835136e-12
4.79692562e-10
2.043371936e-09
3.034342131e-09
3.380664934e-09
3.380691063e-09
3.380705261e-09
3.380709733e-09
3.380709881e-09
3.380708479e-09
3.380706524e-09
3.380704369e-09
3.380702192e-09
3.380700033e-09
3.380697949e-09
3.380695691e-09
3.380757322e-09
3.380750141e-09
3.385979882e-09
1.563270399e-09
6.701657823e-10
2.846486084e-10
1.197256692e-10
4.984456165e-11
2.053166861e-11
8.364665494e-12
3.369358237e-12
1.341491031e-12
5.277721583e-13
2.051187444e-13
7.873178707e-14
2.983789638e-14
1.116213358e-14
4.120725375e-15
1.500832418e-15
5.391444124e-16
1.909731434e-16
6.668244503e-17
2.29455691e-17
7.778736586e-18
2.597258486e-18
8.538593061e-19
2.76322614e-19
8.800141776e-20
2.757262393e-20
8.497168472e-21
2.574941988e-21
7.671046033e-22
2.246145424e-22
6.462839151e-23
1.826926672e-23
5.072764645e-24
1.383280376e-24
3.703694709e-25
9.734926958e-26
2.511084791e-26
6.348027531e-27
1.56014342e-27
3.564131442e-28
5.589411833e-29
3.338781577e-30
6.861007909e-08
1.161159562e-08
2.540969419e-09
3.380573799e-09
3.380598394e-09
3.380616908e-09
3.380629418e-09
3.380635118e-09
3.380636689e-09
3.380636225e-09
3.38063478e-09
3.38063284e-09
3.380630684e-09
3.380628507e-09
3.380626071e-09
3.380687881e-09
3.380687642e-09
3.380601141e-09
3.386232815e-09
3.393917766e-09
1.576669376e-09
6.712603195e-10
2.824958838e-10
1.174993916e-10
4.829360822e-11
1.961101364e-11
7.86665453e-12
3.116593308e-12
1.219234397e-12
4.708954763e-13
1.795151717e-13
6.753389546e-14
2.506608685e-14
9.176792093e-15
3.313034854e-15
1.179177195e-15
4.136508842e-16
1.429788982e-16
4.868244052e-17
1.632343756e-17
5.38830502e-18
1.750663653e-18
5.597303765e-19
1.760452716e-19
5.445227555e-20
1.656037697e-20
4.950891292e-21
1.454648728e-21
4.19956159e-22
1.191059127e-22
3.317890149e-23
9.076298213e-24
2.437774882e-24
6.42731016e-25
1.662843949e-25
4.213975386e-26
1.036610666e-26
2.331088202e-27
3.617495313e-28
2.279581938e-29
1.767383799e-07
2.270893332e-08
3.386463489e-09
3.380576648e-09
3.380588553e-09
3.380605667e-09
3.380622722e-09
3.380634459e-09
3.380640005e-09
3.380641478e-09
3.380640532e-09
3.380638291e-09
3.380635491e-09
3.38063253e-09
3.380629326e-09
3.380692033e-09
3.380694201e-09
3.380621807e-09
3.380619553e-09
3.380599897e-09
3.389097013e-09
2.276716042e-09
9.720171427e-10
4.095692667e-10
1.703434773e-10
6.993429417e-11
2.834114602e-11
1.133660918e-11
4.475561205e-12
1.743640838e-12
6.702656438e-13
2.541806235e-13
9.507355967e-14
3.506770271e-14
1.275224547e-14
4.570813251e-15
1.614427837e-15
5.617579845e-16
1.925171456e-16
6.496213222e-17
2.157737291e-17
7.05281326e-18
2.268200488e-18
7.175769042e-19
2.23230081e-19
6.826824046e-20
2.052095781e-20
6.06176793e-21
1.759262918e-21
5.015427482e-22
1.404268367e-22
3.860809572e-23
1.04211366e-23
2.760998549e-24
7.176299489e-25
1.824938007e-25
4.480532556e-26
9.841393865e-27
1.47161663e-27
8.991101468e-29
-1.101358626e-06
-1.623147798e-08
1.953051469e-09
2.961636037e-09
3.380582661e-09
3.380601669e-09
3.380622258e-09
3.380637944e-09
3.380646947e-09
3.380650579e-09
3.38065015e-09
3.380647343e-09
3.380643345e-09
3.380638898e-09
3.380634146e-09
3.380699863e-09
3.380700141e-09
3.380623571e-09
3.380621273e-09
3.380618813e-09
3.380606369e-09
3.385854226e-09
2.672190248e-09
1.142376111e-09
4.815409617e-10
2.001898975e-10
8.209144271e-11
3.320699452e-11
1.325072433e-11
5.21565002e-12
2.024874164e-12
7.75273281e-13
2.926926904e-13
1.089409031e-13
3.996724876e-14
1.444960259e-14
5.146875239e-15
1.805760277e-15
6.238697547e-16
2.121932173e-16
7.103399771e-17
2.339750409e-17
7.580741734e-18
2.415756343e-18
7.57041751e-19
2.332047472e-19
7.059625614e-20
2.099859027e-20
6.136099646e-21
1.761167192e-21
4.964038327e-22
1.373796943e-22
3.732374544e-23
9.95198612e-24
2.602138631e-24
6.645406471e-25
1.624232854e-25
3.476596546e-26
4.983243086e-27
2.939842521e-28
1.971248731e-06
1.332202616e-08
6.571327811e-10
6.381451535e-10
3.381143545e-09
3.380599708e-09
3.380625325e-09
3.380647202e-09
3.380660413e-09
3.380666091e-09
3.380666378e-09
3.38066351e-09
3.380658552e-09
3.380651978e-09
3.380644371e-09
3.380716969e-09
3.380711153e-09
3.380627072e-09
3.380623653e-09
3.380620517e-09
3.380617829e-09
3.380608454e-09
3.384388863e-09
2.768535256e-09
1.184416249e-09
4.992330296e-10
2.073908817e-10
8.492939398e-11
3.42896805e-11
1.364986203e-11
5.357322396e-12
2.072978026e-12
7.907201098e-13
2.972829289e-13
1.101440463e-13
4.020776455e-14
1.445845836e-14
5.120304115e-15
1.785356102e-15
6.12774513e-16
2.069758325e-16
6.878136193e-17
2.24811219e-17
7.225179013e-18
2.283116091e-18
7.0923459e-19
2.165141961e-19
6.493463426e-20
1.912886237e-20
5.534445146e-21
1.572376944e-21
4.385884194e-22
1.200860402e-22
3.226307476e-23
8.492678605e-24
2.177524451e-24
5.292320781e-25
1.104432977e-25
1.5190047e-26
8.680527723e-28
4.476368591e-05
1.962109088e-06
2.502580449e-08
1.139268949e-09
1.228820296e-09
3.380590699e-09
3.380617317e-09
3.380643749e-09
3.380662016e-09
3.380671139e-09
3.380673686e-09
3.380671883e-09
3.380667163e-09
3.380660519e-09
3.380652483e-09
3.380735226e-09
3.380723405e-09
3.380631585e-09
3.380626646e-09
3.380622281e-09
3.380618762e-09
3.380615835e-09
3.380607177e-09
3.384386758e-09
2.632399393e-09
1.12678491e-09
4.748132752e-10
1.970584928e-10
8.057369571e-11
3.246402891e-11
1.289041746e-11
5.044267128e-12
1.945267879e-12
7.392174215e-13
2.767700952e-13
1.020817522e-13
3.708300475e-14
1.326496828e-14
4.671346736e-15
1.619120949e-15
5.522236863e-16
1.852866473e-16
6.114413568e-17
1.983896166e-17
6.327510967e-18
1.983571119e-18
6.111004406e-19
1.849778389e-19
5.499500331e-20
1.605552793e-20
4.602352648e-21
1.295202939e-21
3.577575578e-22
9.693503483e-23
2.570832648e-23
6.615117972e-24
1.597093555e-24
3.253828255e-25
4.308062247e-26
2.395193646e-27
0.0001044252454
6.636175075e-06
2.051415139e-07
1.420480663e-09
-1.349094341e-09
3.268642931e-09
3.380601732e-09
3.380631349e-09
3.380655184e-09
3.380669303e-09
3.380675605e-09
3.38067652e-09
3.380673852e-09
3.380668775e-09
3.380661384e-09
3.380756039e-09
3.380739784e-09
3.380637957e-09
3.380631505e-09
3.380625726e-09
3.380620989e-09
3.380617172e-09
3.380614033e-09
3.380604451e-09
3.385392108e-09
2.350833379e-09
1.006583811e-09
4.239498605e-10
1.75739925e-10
7.17292183e-11
2.883427231e-11
1.141767326e-11
4.45379935e-12
1.711451061e-12
6.478124416e-13
2.41509425e-13
8.866477924e-14
3.204938713e-14
1.140380388e-14
3.993421911e-15
1.375964703e-15
4.663735952e-16
1.554600305e-16
5.095135074e-17
1.641468733e-17
5.196959278e-18
1.616718929e-18
4.941372002e-19
1.483599258e-19
4.37443461e-20
1.266311368e-20
3.598228389e-21
1.003379069e-21
2.743342424e-22
7.331958596e-23
1.892777763e-23
4.537269464e-24
9.038410543e-25
1.156220977e-25
6.280214606e-27
7.972578402e-05
9.211795949e-06
1.146303401e-07
-1.094845215e-08
5.92441854e-08
1.064167794e-09
3.382759436e-09
3.380616562e-09
3.380644925e-09
3.380665416e-09
3.380676285e-09
3.380680117e-09
3.380679286e-09
3.380675418e-09
3.380668743e-09
3.380775027e-09
3.380757124e-09
3.380646013e-09
3.380638689e-09
3.380631399e-09
3.38062509e-09
3.380619889e-09
3.380615773e-09
3.380612468e-09
3.380601053e-09
3.386929932e-09
2.003602303e-09
8.577297941e-10
3.609145752e-10
1.493726653e-10
6.083647242e-11
2.439095856e-11
9.628452879e-12
3.742769207e-12
1.43267674e-12
5.400106683e-13
2.004067416e-13
7.321781314e-14
2.632937147e-14
9.317487751e-15
3.244147884e-15
1.111090895e-15
3.7423563e-16
1.239328333e-16
4.034355282e-17
1.290658721e-17
4.056934965e-18
1.252711872e-18
3.799449262e-19
1.131778567e-19
3.310467273e-20
9.505126141e-21
2.677526704e-21
7.390327475e-22
1.990139053e-22
5.151017446e-23
1.225715031e-23
2.390720946e-24
2.963647718e-25
1.577383541e-26
8.631180632e-05
9.054560936e-06
2.452058701e-07
-6.81370997e-08
-3.962883018e-09
-1.642596212e-09
2.730480818e-09
3.380598873e-09
3.380631765e-09
3.380658721e-09
3.380675318e-09
3.380682831e-09
3.380684124e-09
3.380681459e-09
3.380675364e-09
3.380791259e-09
3.380772941e-09
3.380653395e-09
3.38064591e-09
3.380637988e-09
3.380630747e-09
3.380624491e-09
3.380619293e-09
3.380615062e-09
3.380611581e-09
3.380597962e-09
3.388663226e-09
1.650455833e-09
7.056543901e-10
2.963852915e-10
1.223810299e-10
4.970454668e-11
1.986394316e-11
7.813184972e-12
3.025123785e-12
1.15300529e-12
4.325956492e-13
1.597572373e-13
5.806470077e-14
2.076674874e-14
7.307189828e-15
2.529127564e-15
8.608685162e-16
2.881070406e-16
9.478236659e-17
3.064535364e-17
9.735927231e-18
3.038589468e-18
9.314576883e-19
2.804046356e-19
8.288721511e-20
2.405152083e-20
6.846388259e-21
1.908322997e-21
5.177348816e-22
1.342767491e-22
3.171363418e-23
6.065092273e-24
7.307153796e-25
3.821944787e-26
-5.577048473e-05
-3.553051757e-05
-5.970581046e-06
-4.3287882e-07
-1.850262206e-08
-1.75890901e-10
6.138437261e-10
3.382561616e-09
3.380615134e-09
3.380647909e-09
3.38067135e-09
3.380683718e-09
3.380687979e-09
3.38068691e-09
3.380681544e-09
3.380805783e-09
3.380788178e-09
3.380660252e-09
3.380652758e-09
3.380644498e-09
3.380636635e-09
3.380629534e-09
3.380623422e-09
3.380618356e-09
3.380614211e-09
3.380610458e-09
3.38147216e-09
3.053504903e-09
1.326876492e-09
5.657180638e-10
2.368747966e-10
9.74760199e-11
3.944280415e-11
1.569979582e-11
6.148747851e-12
2.369791745e-12
8.9885762e-13
3.355245715e-13
1.232483916e-13
4.454646349e-14
1.584006506e-14
5.540358387e-15
1.90578241e-15
6.445792089e-16
2.143177507e-16
7.003742985e-17
2.249088487e-17
7.095804864e-18
2.199038136e-18
6.692839083e-19
2.000073033e-19
5.866527615e-20
1.687616451e-20
4.74949148e-21
1.297613728e-21
3.370337685e-22
7.899708294e-23
1.483014875e-23
1.740522708e-24
8.967206329e-26
-7.711333964e-05
-9.179073007e-05
-2.355609225e-05
-1.789552195e-06
-6.677431076e-08
2.221483609e-09
8.969994284e-11
1.91821627e-09
3.381059284e-09
3.380636834e-09
3.380667362e-09
3.380685102e-09
3.380692625e-09
3.380693255e-09
3.380688494e-09
3.380820277e-09
3.380803942e-09
3.38066701e-09
3.380659536e-09
3.380651028e-09
3.380642716e-09
3.380634955e-09
3.380628032e-09
3.380622131e-09
3.380617241e-09
3.380613218e-09
3.380606406e-09
3.384004122e-09
2.420597075e-09
1.04727309e-09
4.445584636e-10
1.853167853e-10
7.591176676e-11
3.057238573e-11
1.210965922e-11
4.718698629e-12
1.80910064e-12
6.824645214e-13
2.533212793e-13
9.251480316e-14
3.323943763e-14
1.174733234e-14
4.083169956e-15
1.395566967e-15
4.689400967e-16
1.548867435e-16
5.027574367e-17
1.603493876e-17
5.024090518e-18
1.546119662e-18
4.672113381e-19
1.385609567e-19
4.028275937e-20
1.144249924e-20
3.146326839e-21
8.179107984e-22
1.902254597e-22
3.508170731e-23
4.016422309e-24
2.040831682e-25
-0.0003528119536
-0.0001473306753
-4.501501957e-05
-1.974891582e-06
1.331670431e-07
2.888944651e-08
1.028127564e-09
-1.713644801e-09
3.080974553e-09
3.381095571e-09
3.380663033e-09
3.380686816e-09
3.380698112e-09
3.380700969e-09
3.380697137e-09
3.380839017e-09
3.38082427e-09
3.380675127e-09
3.380666924e-09
3.380657847e-09
3.380649146e-09
3.380640818e-09
3.380633171e-09
3.380626458e-09
3.380620775e-09
3.380616073e-09
3.380612188e-09
3.380600808e-09
3.387028813e-09
1.889235638e-09
8.128986364e-10
3.432012408e-10
1.422935334e-10
5.797191205e-11
2.321927332e-11
9.145839176e-12
3.54356426e-12
1.350693822e-12
5.065218134e-13
1.868793785e-13
6.782996451e-14
2.421786881e-14
8.504481478e-15
2.936912506e-15
9.972237526e-16
3.328710077e-16
1.092100265e-16
3.521048044e-17
1.11537532e-17
3.470722135e-18
1.060534188e-18
3.180029739e-19
9.342159905e-20
2.677556575e-20
7.40559656e-21
1.925746267e-21
4.443887735e-22
8.057831385e-23
9.012979925e-24
4.523549259e-25
-9.864900685e-05
-0.0001551240066
-8.662181581e-05
-7.133745467e-07
1.071787672e-06
1.596512929e-07
7.5188479e-09
4.579285494e-10
1.894791026e-09
3.382090156e-09
3.380649868e-09
3.380684564e-09
3.380700761e-09
3.380706815e-09
3.380704676e-09
3.38085654e-09
3.380843557e-09
3.380683537e-09
3.380674955e-09
3.380665201e-09
3.380655974e-09
3.380647145e-09
3.380638853e-09
3.380631373e-09
3.380624885e-09
3.38061943e-09
3.380614918e-09
3.380610822e-09
3.380830698e-09
3.318137966e-09
1.44842113e-09
6.197123474e-10
2.60162436e-10
1.072524657e-10
4.344511318e-11
1.729978199e-11
6.774022801e-12
2.608878523e-12
9.883690872e-13
3.683560519e-13
1.350513404e-13
4.870686228e-14
1.727835506e-14
6.028143608e-15
2.068103907e-15
6.975908383e-16
2.313110086e-16
7.53844832e-17
2.414202808e-17
7.595807713e-18
2.346827914e-18
7.113854565e-19
2.111331655e-19
6.103346184e-20
1.696957298e-20
4.411492519e-21
1.009920421e-21
1.801680721e-22
1.971582079e-23
9.788112492e-25
-8.704369748e-05
-0.0002018412065
-0.0001289133365
1.379165694e-05
5.932174346e-06
6.206677737e-07
3.37579738e-08
1.876694644e-08
2.79027746e-10
3.376210881e-09
3.38062917e-09
3.380678578e-09
3.380700257e-09
3.380710242e-09
3.380710417e-09
3.380871274e-09
3.380860247e-09
3.380691174e-09
3.380682445e-09
3.380672352e-09
3.380662859e-09
3.380653677e-09
3.38064487e-09
3.380636731e-09
3.380629497e-09
3.380623288e-09
3.38061809e-09
3.380613772e-09
3.380608418e-09
3.383154403e-09
2.503510923e-09
1.087520514e-09
4.629742234e-10
1.933583527e-10
7.928724564e-11
3.194055056e-11
1.264673944e-11
4.923301853e-12
1.884846639e-12
7.097409046e-13
2.628810701e-13
9.577673557e-14
3.432310318e-14
1.209780893e-14
4.193488414e-15
1.429346793e-15
4.789938157e-16
1.577903075e-16
5.108611168e-17
1.625109075e-17
5.076352222e-18
1.555337634e-18
4.662168789e-19
1.358675616e-19
3.795190823e-20
9.857561634e-21
2.238104454e-21
3.928491893e-22
4.20543401e-23
2.065311303e-24
-0.0003564050254
-0.0003244783793
-4.363796463e-05
0.0001349471573
3.444187493e-05
3.222391901e-06
1.894010066e-07
7.232439827e-08
6.222652656e-09
2.732227772e-09
3.380313566e-09