/*--------------------------------*- C++ -*----------------------------------*\
  =========                 |
  \\      /  F ield         | OpenFOAM: The Open Source CFD Toolbox
   \\    /   O peration     | Website:  https://openfoam.org
    \\  /    A nd           | Version:  10
     \\/     M anipulation  |
\*---------------------------------------------------------------------------*/
FoamFile
{
    format      ascii;
    class       volScalarField;
    location    "0.02499901733";
    object      ddt0(rho,CO);
}
// * * * * * * * * * * * * * * * * * * * * * * * * * * * * * * * * * * * * * //

dimensions      [1 -3 -1 0 0 0 0];

internalField   nonuniform List<scalar> 
5170
(
7.94724882e-09
8.013445562e-09
8.039330677e-09
8.277345137e-09
-1.660412964e-10
5.770875708e-09
5.813114602e-09
5.848382265e-09
6.105046651e-09
8.034108361e-09
4.813616055e-09
4.843142612e-09
4.885207725e-09
4.978694498e-09
5.851271793e-09
4.384151038e-09
4.410992781e-09
4.454977886e-09
4.526380833e-09
4.839095851e-09
4.069628904e-09
4.093829933e-09
4.124583743e-09
4.207127838e-09
4.387047514e-09
3.836587091e-09
3.876682647e-09
3.910449468e-09
3.917991847e-09
4.065135887e-09
3.656917259e-09
3.693054911e-09
3.74225629e-09
3.712365096e-09
3.818531656e-09
3.533143884e-09
3.55481752e-09
3.5659733e-09
3.608897372e-09
3.651430638e-09
3.445354136e-09
3.474024842e-09
3.479249044e-09
3.508536013e-09
3.537311777e-09
3.357875726e-09
3.400298484e-09
3.495220372e-09
3.409276893e-09
3.43182859e-09
3.324195715e-09
3.34521985e-09
3.411751378e-09
3.367653385e-09
3.378596788e-09
3.342772292e-09
3.340339617e-09
3.272860656e-09
3.360030228e-09
3.384261085e-09
3.329322683e-09
3.344769259e-09
3.253091164e-09
3.339274999e-09
3.39261467e-09
3.325837473e-09
3.354962535e-09
3.329883603e-09
3.332606392e-09
3.417506516e-09
3.355891104e-09
3.384696708e-09
3.412209953e-09
3.364976131e-09
3.465993116e-09
3.420182433e-09
3.440603378e-09
3.471488676e-09
3.438774402e-09
3.51453936e-09
3.504397198e-09
3.502714508e-09
3.512576261e-09
3.524798404e-09
3.563304874e-09
3.567112958e-09
3.573229901e-09
3.539896441e-09
3.566847007e-09
3.632313461e-09
3.634602173e-09
3.762812585e-09
3.968742145e-09
4.662634182e-09
1.273033328e-08
1.323736348e-08
6.276092454e-08
2.630594054e-07
2.364849537e-07
-6.441988306e-07
-0.004346650535
-0.004415999721
-0.004534989506
-0.0044945742
-0.004383665768
-0.01377589392
0.009401233208
0.008944164685
0.008553027184
-0.01581285029
0.002782097177
0.0007187237796
0.00214230244
-0.004194140024
-0.0001651043495
-0.00783459938
0.001636444629
0.002222748235
-0.003282773767
0.003399700528
0.006635937801
0.003998537403
0.004696510711
-0.005730876924
-0.004370456229
0.002116447757
-0.002974718325
-0.00271093812
-0.00450748105
-0.004035927187
-0.003624586109
0.005365476327
0.008550278729
-0.003112843449
-0.003697304342
0.01213388214
-0.003652565268
-0.003124094424
0.003084378883
0.002682397618
0.002565200671
-0.003281656334
-0.001190770803
0.001172398397
-0.001164352731
-0.0007621682832
0.001024250101
0.001403369095
-0.002391540458
0.004487886619
0.004840097645
-0.0009519260933
-0.0009319627385
-0.001580455754
0.0002140408629
0.0004439587887
-0.00189770129
-0.001988198561
0.004359886912
-3.543629159e-05
0.0002101527717
0.00115967234
0.004256194183
-2.705300676e-05
-0.0006631797898
-0.0005941091122
0.000327419707
-2.035333128e-05
-0.0002598532999
-0.000690226656
-0.0005634148791
-0.0003573677205
-0.0002064761681
-0.000631466187
-0.0006518397066
-0.0006611224591
-0.0005500884841
-0.000622461677
-0.0005372186582
-0.0006857501243
-0.0006254922264
-0.000667277468
-0.0006328492707
-0.0005314648359
-0.0006724678717
-0.0006114698642
-0.0006493105178
-0.0006190379263
-0.0005977516094
-0.0006089172175
-0.0005320648821
-0.0005698314838
-0.0006542408669
-0.0007208808537
-0.0005023648064
-0.005746633859
-0.0008798612654
-0.000394271952
-0.0008803445868
0.001183125378
3.124169447e-07
1.219893285e-06
8.221496426e-06
-0.0001963697747
-0.007721349988
4.024602971e-07
1.902857559e-05
0.0001373108327
-0.000613520245
0.00266707408
2.434612441e-06
2.335283493e-05
0.0005590618223
0.002146278252
0.01356834188
1.395250259e-05
0.0001930664458
0.0017265984
0.005282540329
0.01150117087
-4.029452922e-05
-0.0003649959182
-0.00128239612
0.001648375521
0.001011144205
-6.709779272e-05
-0.0009721294326
-0.004820548641
-0.002227901059
-0.001547534299
0.0002361701451
0.0008460200176
-0.0006771023953
0.0006445867884
-0.007854950047
0.001006705778
0.003568777497
0.007210235368
0.004863300364
-0.003753536673
0.001818033845
0.005933888269
0.0107868856
0.009430123349
0.005114783945
0.002423033415
0.006788335586
0.01029123659
0.005649215112
0.0003753710676
0.001453464425
0.001390461585
0.002711153137
0.003505607532
0.0015491125
-0.003537079823
-5.917024786e-05
0.003289064628
0.008563754263
0.007864468297
0.01152483725
0.005367634321
0.001676086587
0.001934849042
0.01312348306
-0.01563550661
-0.009125198845
-0.0004775653646
0.004856331994
-0.001045364583
-0.008437525792
-0.004572480923
-0.003683055117
-0.002648722588
-0.008775179149
-0.02963415469
-0.03018414656
-0.02170186535
-0.007068762478
0.002243960158
-0.03065599915
-0.02618587856
-0.02316820478
-0.02327119511
-0.02100828682
0.004592775605
0.003980058394
0.004057225157
0.002631866454
0.01015365345
0.03010450578
0.02828368659
0.03992854918
0.0704089178
0.1231318265
0.06235678811
0.08183500261
0.1310285062
0.215968964
0.3289171701
0.1566348087
0.209460426
0.2956769235
0.3964756889
0.5148476376
0.3829957484
0.4128762258
0.4655372786
0.5362346051
0.6134478264
0.5369071673
0.5475698821
0.5750934566
0.6136775788
0.6538628855
0.5996178008
0.6033657212
0.6147389278
0.6328755595
0.6450777499
0.5928730902
0.5942787337
0.5980180361
0.6016843073
0.6044150391
0.5452746694
0.5469122731
0.546136881
0.5462958663
0.5438583425
0.4913246632
0.4895042029
0.4884194798
0.4861114511
0.4802583272
0.4277258098
0.4287160822
0.4256463689
0.4222726032
0.4170305167
0.3651142863
0.3652835129
0.3622711931
0.3584857172
0.3538910908
0.3047001121
0.3032438181
0.3011532948
0.2976314514
0.2928181563
0.2471080766
0.246730519
0.2445175884
0.241648442
0.2373520642
0.1965499618
0.1958342041
0.1943561262
0.1917386951
0.1890642065
0.1519444861
0.1517096433
0.1505207695
0.1485184547
0.1463118415
0.1140214852
0.113724572
0.1127736928
0.1114208768
0.1096994847
0.08212028458
0.08178714087
0.08120348846
0.08028157115
0.07898994823
0.0562896544
0.05618778896
0.05581577474
0.05511539459
0.05442422461
0.03679846613
0.03666081558
0.03645250957
0.03605868092
0.03558867899
0.02280358403
0.02273571634
0.0226246673
0.02238288965
0.02213747669
0.01336783158
0.01341153829
0.01332875571
0.01319440843
0.01299841177
0.00752090187
0.007471962175
0.007427328654
0.007404432368
0.007265984177
0.003979654307
0.003948642641
0.00393321203
0.00391645324
0.0038548374
0.001969443763
0.001973107706
0.001970476429
0.001947812061
0.001957500367
0.0009320786313
0.0009206328515
0.0009211690963
0.0009155493051
0.0009201938419
0.0003990933905
0.0003985757091
0.0004079397657
0.0003896310159
0.000421292085
0.0001503811138
0.0001617777119
0.0001602750596
0.0001561474061
0.0001463522349
5.511698506e-05
5.653874223e-05
5.302968666e-05
5.466754414e-05
5.253970226e-05
1.536538355e-05
1.598284465e-05
1.360606853e-05
1.793258577e-05
1.071361029e-05
9.997944949e-06
3.201500561e-06
3.706765569e-07
4.471639925e-06
1.031782815e-05
7.843348188e-06
3.323632455e-07
1.228052356e-06
1.810008447e-06
8.455210482e-06
6.074906393e-06
2.997270605e-06
2.679759956e-06
4.673507459e-06
1.055146743e-05
4.275985245e-06
7.162366389e-06
5.256203787e-06
3.818044842e-06
1.154231527e-05
4.954363131e-06
7.34109616e-06
9.147938547e-06
3.927731194e-06
1.111756195e-05
1.865535847e-05
5.077005585e-06
4.60181213e-06
1.208041437e-05
-6.96352591e-07
6.403706096e-06
9.127359298e-06
7.773528842e-06
7.495930572e-06
1.566504932e-05
1.303034936e-05
4.354055327e-06
1.168541741e-05
5.172748348e-06
1.092098761e-05
9.844665927e-06
7.754042503e-06
6.709003542e-06
9.189474606e-06
7.98745646e-06
4.188170549e-06
8.559805673e-06
6.9550196e-06
8.592041447e-06
-2.679371383e-06
2.698697325e-06
6.4848884e-06
6.551250299e-06
6.723310526e-06
-2.783554126e-06
7.548461961e-06
1.327795749e-06
7.143786109e-06
3.637181715e-06
-3.030018406e-06
5.053328881e-06
3.155130064e-06
2.602864253e-06
5.720201654e-06
-4.171971556e-06
3.620417563e-06
3.520267431e-06
4.619166201e-06
4.442230804e-06
-4.601524975e-06
6.884700014e-06
3.943635271e-06
7.431749816e-06
6.689279716e-06
-1.397638985e-06
8.986229366e-06
8.9278822e-06
9.346597585e-06
1.01866649e-05
3.214253278e-06
1.312975638e-05
1.306003711e-05
1.160053096e-05
1.524287108e-05
4.165014308e-06
1.520720013e-05
1.636003135e-05
1.443128012e-05
1.637703052e-05
1.452177695e-05
1.725592556e-05
1.646190391e-05
1.661124718e-05
1.688353155e-05
1.56348655e-05
1.599925148e-05
1.610043674e-05
1.643138511e-05
1.61004916e-05
1.459988602e-05
1.32867807e-05
1.378811746e-05
1.437419054e-05
1.40998668e-05
1.287731638e-05
1.197326484e-05
1.114549875e-05
1.180884335e-05
1.179606298e-05
1.169477354e-05
1.039698764e-05
1.008294393e-05
1.02805611e-05
1.024146456e-05
1.098671541e-05
0.03775425994
-0.05340510934
-0.06407294461
-0.04120016365
0.008127086881
-0.005099987963
-0.005821976399
-0.007388693548
0.002567434277
0.004033893877
0.001303800978
0.008570236553
0.001907396906
0.01947006653
-0.0135800063
0.04132757775
-0.03543346024
0.002919954076
0.1677410714
0.4235264086
0.572190814
0.6623950792
0.6821957075
0.6694901787
0.6099980266
0.5439103889
0.4816445067
0.4130619109
0.3480784881
0.289227372
0.2350782298
0.1846910955
0.1436962493
0.108154976
0.07817801837
0.05356852523
0.03508305693
0.02177879863
0.01312057338
0.00735031863
0.003900150829
0.001859710592
0.0008675390044
0.00031338537
0.0002035498195
6.620669779e-05
3.169798041e-05
-2.050466541e-05
-2.034905409e-05
-2.477034477e-05
-1.500944303e-05
-4.380987582e-06
3.403822203e-05
-2.029500167e-05
2.432438321e-06
4.702981119e-06
4.197942819e-05
3.764714341e-05
3.40006725e-05
2.957741984e-05
3.627415822e-05
3.232990926e-05
3.111618934e-05
4.185480523e-05
1.833186366e-05
1.990623407e-05
2.198938875e-05
1.759358006e-05
1.109314184e-05
8.163120127e-06
0.03085497837
0.05195496214
-0.03919757101
-0.00184428851
-0.0001247511984
-0.01940191866
0.04301413589
-0.02380150044
0.01784560659
0.001228069291
-0.0175398068
0.06535666088
0.00771066964
0.037702075
0.001240896894
0.002070532158
0.004072865218
0.1625462902
0.0213415759
0.0006091863899
0.01003677045
0.004581497416
0.06485157287
-0.03942698195
-0.002662247824
-0.02004240044
0.009116412766
-0.005089153072
0.05936193394
0.02160643671
-0.01047069847
-0.02594732805
-0.02096550087
0.1582891558
0.091535638
-0.009688555568
0.001840726278
-0.005789440866
0.05985688924
0.06358591846
-0.00453169488
0.003729911059
-0.01190265775
0.002990102048
0.03751051847
0.00611675
-0.005855846405
-0.007478640337
0.01461597981
-0.01930465258
-0.0001332702175
0.0195159842
0.01787063282
-0.005647564348
-0.02813917109
0.007073732829
0.008692992001
-0.001132068087
-0.002994451322
-0.06180851911
0.02636962077
0.004612548894
-0.008371853162
0.05148979343
-0.06216210335
-0.007462894419
0.003502204247
0.02253410885
0.003175895419
-0.006999342365
-0.0219146435
-0.003230877535
0.03133148038
-0.003763724085
-0.03586628878
0.01447175337
-0.005255766651
-0.01840439797
0.05853172989
0.1024337242
-0.01186720146
0.00399631585
0.03443771506
0.07537920441
0.2309900806
0.01550225072
0.004279111291
-0.03116597549
-0.0981728457
-0.03102687101
0.2664645391
0.4942904366
0.7973161271
1.070435955
1.886805369
0.5568352
0.8299230948
1.152629455
1.377247003
1.305405497
0.697176368
0.8779994012
1.066115963
1.19596621
1.171671753
0.732865013
0.8324879685
0.9188606941
0.9627589939
0.9372641275
0.7219394926
0.7689665502
0.7939855084
0.7936850391
0.7621377669
0.6758090901
0.6920311635
0.691638248
0.6739322341
0.6379663025
0.6139253493
0.6144706932
0.6023078617
0.5786524768
0.5427703147
0.5430075743
0.5357831096
0.5192357915
0.494185587
0.4612153907
0.4757828451
0.465709541
0.4480486403
0.4240986373
0.3946424173
0.4098760517
0.3985766286
0.381523397
0.3595498446
0.333730229
0.3459759782
0.3349667664
0.3193779367
0.3000579197
0.2778969057
0.2858850597
0.2761118803
0.2626648804
0.2462674477
0.2278930194
0.2315334641
0.223451804
0.2123392354
0.1990241725
0.1842265977
0.1840109505
0.1774244212
0.1686651375
0.1582105954
0.1466120878
0.1426080023
0.1377258716
0.1310086991
0.1230784958
0.1141864062
0.1071690156
0.1036348437
0.09877787816
0.09285194301
0.0863006254
0.07739194117
0.07502467023
0.07159123368
0.06741058088
0.06270785456
0.05340611309
0.05186953856
0.04960161384
0.0467586103
0.04355653203
0.03505456278
0.03414875819
0.03270985593
0.03090127267
0.0288096893
0.02186725434
0.02136538084
0.02051369534
0.01941079784
0.01812798788
0.01293229367
0.012695699
0.01222246344
0.01158404159
0.01083858424
0.007269584345
0.007159758366
0.006910653231
0.006562855005
0.006150590046
0.003870119164
0.003826148806
0.003700209286
0.003525454636
0.003306206894
0.001952922518
0.00193056981
0.001873180542
0.001786755411
0.00168086319
0.0009227528986
0.0009148425793
0.0008908584029
0.0008519329511
0.0008021604956
0.0004106638531
0.0004029614602
0.0003937116335
0.000379258212
0.0003554784856
0.0001578371623
0.0001623778509
0.0001598128123
0.0001535212607
0.0001449970793
5.592404562e-05
5.75239337e-05
5.823118942e-05
5.432071461e-05
5.347064683e-05
1.561077235e-05
1.686581974e-05
1.850474271e-05
1.628657809e-05
1.697896303e-05
6.473095303e-06
3.865512376e-06
5.817304577e-06
3.836560837e-06
5.493316392e-06
4.327704521e-06
2.363953187e-06
2.77408959e-06
2.614000505e-06
2.529005977e-06
5.972950825e-06
4.055197061e-06
2.879236706e-06
4.38762395e-06
3.042101352e-06
7.444059724e-06
4.980889113e-06
5.397834209e-06
5.141357449e-06
4.939167984e-06
7.789429628e-06
6.547140504e-06
6.718343447e-06
6.034432989e-06
6.222605942e-06
5.605054953e-06
7.213974101e-06
7.776002389e-06
6.451248078e-06
6.99615718e-06
1.031269926e-05
7.612747228e-06
7.708707315e-06
7.182135618e-06
7.068094231e-06
8.35837386e-06
7.804519427e-06
7.795874372e-06
7.252536953e-06
7.197950108e-06
8.201534232e-06
7.504169469e-06
7.7248337e-06
7.038787266e-06
7.101837159e-06
4.210148864e-06
7.298276493e-06
6.760828861e-06
6.805115443e-06
6.557966573e-06
3.201273691e-06
6.118292828e-06
5.963612785e-06
5.749940197e-06
5.844708396e-06
2.077787397e-06
4.962247664e-06
4.6694951e-06
5.065941352e-06
4.704922742e-06
1.877704381e-06
4.009121967e-06
4.137578322e-06
4.368635428e-06
4.277442207e-06
1.634769283e-06
4.339451132e-06
4.750178256e-06
4.776200377e-06
4.947086446e-06
3.970795208e-06
6.518098697e-06
6.636524381e-06
6.690869294e-06
7.105811206e-06
7.593540329e-06
9.67439318e-06
9.803411493e-06
9.62499146e-06
1.01544965e-05
1.055632445e-05
1.301198931e-05
1.2962404e-05
1.308792857e-05
1.311933473e-05
1.528881917e-05
1.555960634e-05
1.553507943e-05
1.557705118e-05
1.535779637e-05
1.665767958e-05
1.697479933e-05
1.695287125e-05
1.687403132e-05
1.679259647e-05
1.580227916e-05
1.632046071e-05
1.612804699e-05
1.624710972e-05
1.595949059e-05
1.38390188e-05
1.425899312e-05
1.422093574e-05
1.428565741e-05
1.421437628e-05
1.198952748e-05
1.21239204e-05
1.225837676e-05
1.247249006e-05
1.256497534e-05
1.074017291e-05
1.076486447e-05
1.095833562e-05
1.11531784e-05
1.134247858e-05
-0.000182548897
-0.0002536259764
-5.813960594e-05
-1.33052963e-05
-4.158106258e-06
-1.577048079e-06
-6.6133459e-07
-3.458335981e-07
-2.517185943e-07
-2.322082107e-07
-2.324749613e-07
-2.350622383e-07
-2.368665526e-07
-2.376849455e-07
-2.377697434e-07
-2.378172244e-07
-2.378698513e-07
-2.379011247e-07
-2.380391646e-07
-2.380962244e-07
-2.38108686e-07
-2.381151074e-07
-2.381228634e-07
-2.38147947e-07
-2.381903909e-07
-2.382299882e-07
-2.382705288e-07
-2.383136908e-07
-2.383551623e-07
-2.383923196e-07
-2.384261574e-07
-2.384566424e-07
-2.384840018e-07
-2.385060285e-07
-2.385235831e-07
-2.385388774e-07
-2.385514709e-07
-2.385587239e-07
-2.385626455e-07
-2.385677678e-07
-2.38573006e-07
-2.385766311e-07
-2.385836881e-07
-2.38590222e-07
-2.386008989e-07
-2.386164628e-07
-2.386385081e-07
-2.386674506e-07
-2.387029188e-07
-2.387424691e-07
-2.387877408e-07
-2.388384699e-07
-2.388916932e-07
-2.389510093e-07
-2.390393378e-07
-2.392882105e-07
-2.401981037e-07
-2.429425085e-07
-2.491781031e-07
-2.58013584e-07
-0.0004095321668
-0.0006046093901
-8.515264253e-05
-1.415977371e-05
-3.769912043e-06
-1.383544647e-06
-5.575017461e-07
-2.898330638e-07
-2.301001014e-07
-2.363900562e-07
-2.55414254e-07
-2.69968771e-07
-2.786786045e-07
-2.828447035e-07
-2.845281036e-07
-2.852083579e-07
-2.860110926e-07
-2.872307872e-07
-2.881418301e-07
-2.886089171e-07
-2.887754245e-07
-2.888213719e-07
-2.888768786e-07
-2.889676361e-07
-2.890354958e-07
-2.891244192e-07
-2.892009763e-07
-2.892647843e-07
-2.893101123e-07
-2.8934975e-07
-2.893833313e-07
-2.894183974e-07
-2.89442046e-07
-2.894406745e-07
-2.894309605e-07
-2.894380355e-07
-2.894250551e-07
-2.894132968e-07
-2.89379791e-07
-2.893723592e-07
-2.893588407e-07
-2.893649327e-07
-2.894109552e-07
-2.894147336e-07
-2.894506431e-07
-2.895216837e-07
-2.896226149e-07
-2.897275275e-07
-2.898547334e-07
-2.899757817e-07
-2.901413357e-07
-2.903298518e-07
-2.905085612e-07
-2.907048094e-07
-2.909813695e-07
-2.916597822e-07
-2.938271842e-07
-3.007774248e-07
-3.181076627e-07
-3.371752202e-07
-0.002474920431
-0.0008801364343
8.189205509e-06
4.243882055e-06
8.181353105e-07
3.773634669e-07
2.712089164e-07
2.332430253e-07
1.637449862e-07
9.034633304e-08
3.360550776e-08
-4.256517263e-09
-2.627561501e-08
-3.815938294e-08
-4.413021375e-08
-4.681093412e-08
-4.925397407e-08
-5.264502636e-08
-5.506311085e-08
-5.652762779e-08
-5.740347096e-08
-5.803888471e-08
-5.859843158e-08
-5.913556448e-08
-5.965944637e-08
-6.014765787e-08
-6.059556008e-08
-6.100850125e-08
-6.137742605e-08
-6.171344314e-08
-6.200396521e-08
-6.226190479e-08
-6.250464967e-08
-6.271597856e-08
-6.287865644e-08
-6.302823393e-08
-6.315690103e-08
-6.326332721e-08
-6.332642424e-08
-6.340267582e-08
-6.347305276e-08
-6.353179446e-08
-6.362421632e-08
-6.368756731e-08
-6.379620999e-08
-6.392598221e-08
-6.409367252e-08
-6.426427613e-08
-6.445276056e-08
-6.465866299e-08
-6.489675661e-08
-6.514311984e-08
-6.539712346e-08
-6.566550274e-08
-6.599192156e-08
-6.664877124e-08
-6.834001869e-08
-7.261611398e-08
-7.939850077e-08
-8.253160969e-08
-0.004296639183
-0.004055709307
0.0002873870925
7.211685086e-05
1.158828901e-05
3.343002525e-06
1.677658251e-06
1.096376248e-06
7.809890131e-07
5.86450883e-07
4.646083121e-07
3.924458116e-07
3.518002123e-07
3.291937842e-07
3.168825243e-07
3.102576568e-07
3.048087918e-07
2.990593949e-07
2.951279557e-07
2.926298023e-07
2.909518014e-07
2.896447503e-07
2.884835817e-07
2.874064829e-07
2.863896529e-07
2.854545091e-07
2.846064818e-07
2.838341254e-07
2.831334155e-07
2.825019392e-07
2.819400785e-07
2.814448102e-07
2.810090453e-07
2.806295274e-07
2.803159915e-07
2.800460232e-07
2.798213666e-07
2.796381302e-07
2.794892003e-07
2.793597649e-07
2.792469954e-07
2.791591381e-07
2.790766471e-07
2.790055008e-07
2.789116317e-07
2.788212095e-07
2.786973021e-07
2.785726926e-07
2.784212003e-07
2.78263892e-07
2.780842685e-07
2.779013082e-07
2.77701489e-07
2.775046872e-07
2.772981513e-07
2.771043359e-07
2.770889223e-07
2.785920482e-07
2.862949925e-07
2.97781826e-07
-0.002298286739
-0.006605188239
-0.001498720124
0.0002331964492
5.07092537e-05
1.279865814e-05
5.528215932e-06
3.092299406e-06
1.920465166e-06
1.290631986e-06
9.510478612e-07
7.746204767e-07
6.871907318e-07
6.43307001e-07
6.209601332e-07
6.09178989e-07
6.009241808e-07
5.93918191e-07
5.894108046e-07
5.867103806e-07
5.849762666e-07
5.836273889e-07
5.824290607e-07
5.813306739e-07
5.803174723e-07
5.793875069e-07
5.785341966e-07
5.777581275e-07
5.770523983e-07
5.764226097e-07
5.758636658e-07
5.753708107e-07
5.749496336e-07
5.745896407e-07
5.742940035e-07
5.740520313e-07
5.738606805e-07
5.737084642e-07
5.735916927e-07
5.735029949e-07
5.734387839e-07
5.734006129e-07
5.733784392e-07
5.733731852e-07
5.733651171e-07
5.733642654e-07
5.733408584e-07
5.733124598e-07
5.732597853e-07
5.732071658e-07
5.731372947e-07
5.730662986e-07
5.729658979e-07
5.72897004e-07
5.72857109e-07
5.73088857e-07
5.742864101e-07
5.788595998e-07
5.912982323e-07
6.051335059e-07
0.0003928452597
-0.007523259477
-0.00556904796
-0.0001995635684
0.0003439011062
7.452951214e-05
2.217664174e-05
9.32090193e-06
4.698068983e-06
2.611956584e-06
1.615204484e-06
1.149139819e-06
9.40701357e-07
8.4989535e-07
8.100011307e-07
7.918646894e-07
7.813150391e-07
7.738091941e-07
7.693401753e-07
7.668281961e-07
7.653407414e-07
7.642865935e-07
7.633970106e-07
7.625855956e-07
7.618363835e-07
7.611540362e-07
7.605197936e-07
7.599421805e-07
7.594188865e-07
7.589514368e-07
7.585324753e-07
7.581656776e-07
7.578546969e-07
7.575895167e-07
7.573760878e-07
7.572050087e-07
7.570859681e-07
7.569956963e-07
7.56940566e-07
7.56918871e-07
7.569252217e-07
7.569549802e-07
7.570030885e-07
7.570696149e-07
7.571407034e-07
7.572187392e-07
7.572879055e-07
7.573493155e-07
7.573953363e-07
7.574347622e-07
7.574540769e-07
7.574664499e-07
7.574674461e-07
7.574876481e-07
7.575401766e-07
7.579433534e-07
7.592766587e-07
7.635309367e-07
7.730216676e-07
7.823975155e-07
0.006550144322
-0.009255579787
-0.01239653673
-0.008561706478
0.0007642229368
0.000369595044
7.562694597e-05
2.430581712e-05
1.04297484e-05
5.06630806e-06
2.693724198e-06
1.629765471e-06
1.173089846e-06
9.876429953e-07
9.14489851e-07
8.85052961e-07
8.707432683e-07
8.619851677e-07
8.571527306e-07
8.546514106e-07
8.533906542e-07
8.525902145e-07
8.51982788e-07
8.514598055e-07
8.509780384e-07
8.505259447e-07
8.501234811e-07
8.497362945e-07
8.493795475e-07
8.490531255e-07
8.487431814e-07
8.484786216e-07
8.482498462e-07
8.480461233e-07
8.478833984e-07
8.47748311e-07
8.476430509e-07
8.475902683e-07
8.475584852e-07
8.475505178e-07
8.475827377e-07
8.476463163e-07
8.477132337e-07
8.478122806e-07
8.479200557e-07
8.480374582e-07
8.481517735e-07
8.482733222e-07
8.483760094e-07
8.484682345e-07
8.485460927e-07
8.486162412e-07
8.48662737e-07
8.487635192e-07
8.488532423e-07
8.49164473e-07
8.50143926e-07
8.527451978e-07
8.578882696e-07
8.626048491e-07
0.01018346369
-0.0123605639
-0.01863873567
-0.02098377883
-0.003653725792
0.002155440816
0.0003519371678
7.468215499e-05
2.515660769e-05
1.065161448e-05
4.951243737e-06
2.52286359e-06
1.517264807e-06
1.127667059e-06
9.846612984e-07
9.325491039e-07
9.112951337e-07
9.00041806e-07
8.939383412e-07
8.908071918e-07
8.894434516e-07
8.886295554e-07
8.883900618e-07
8.87939933e-07
8.875980231e-07
8.872796513e-07
8.869657817e-07
8.867087546e-07
8.864503229e-07
8.861537456e-07
8.858965378e-07
8.856991657e-07
8.854604014e-07
8.852492972e-07
8.850869252e-07
8.849554773e-07
8.847914738e-07
8.847238058e-07
8.846726932e-07
8.846387915e-07
8.846443345e-07
8.846846858e-07
8.847620173e-07
8.848266877e-07
8.849601437e-07
8.850988076e-07
8.852012838e-07
8.853836136e-07
8.855005592e-07
8.85659053e-07
8.857665121e-07
8.858708659e-07
8.859642339e-07
8.860639515e-07
8.861766954e-07
8.864165922e-07
8.869597868e-07
8.882593923e-07
8.905613335e-07
8.925565037e-07
0.008883436641
-0.01045781235
-0.0212181203
-0.02408063383
-0.01442248212
0.007845947995
0.001881317193
0.0002571231022
6.466618029e-05
2.359671647e-05
9.766617151e-06
4.277951297e-06
2.119732502e-06
1.328942783e-06
1.058272548e-06
9.660521752e-07
9.321123521e-07
9.169852511e-07
9.09016373e-07
9.047293781e-07
9.026790015e-07
9.018163255e-07
9.012852318e-07
9.009699803e-07
9.006887953e-07
9.004404365e-07
9.002039056e-07
8.999328322e-07
8.997404719e-07
8.99501322e-07
8.991971778e-07
8.989385018e-07
8.98732046e-07
8.984824366e-07
8.982349055e-07
8.980449008e-07
8.978500797e-07
8.977579624e-07
8.976227468e-07
8.974897961e-07
8.974910885e-07
8.97486677e-07
8.97519567e-07
8.975935368e-07
8.976984519e-07
8.978321474e-07
8.97981672e-07
8.98147709e-07
8.983092142e-07
8.984783236e-07
8.986305366e-07
8.987725208e-07
8.98905302e-07
8.990323852e-07
8.991644644e-07
8.993494188e-07
8.996723071e-07
9.002997587e-07
9.012883317e-07
9.021047216e-07
-0.004859358781
-0.01077695819
-0.02770729671
-0.03266698313
-0.02727248755
0.01578762321
0.01008252831
0.0009425998428
0.0001630433627
5.016866687e-05
1.864775703e-05
7.268225892e-06
3.078735504e-06
1.621952476e-06
1.150235973e-06
1.001630349e-06
9.497461814e-07
9.274082092e-07
9.161405853e-07
9.107437775e-07
9.080636585e-07
9.065020726e-07
9.05653936e-07
9.052865331e-07
9.05053271e-07
9.048292804e-07
9.046109245e-07
9.043786177e-07
9.041206746e-07
9.03831606e-07
9.035385313e-07
9.032471173e-07
9.029538329e-07
9.026611675e-07
9.023650219e-07
9.020937301e-07
9.018561815e-07
9.016772427e-07
9.015031166e-07
9.013772801e-07
9.012945535e-07
9.012555913e-07
9.0125965e-07
9.013052274e-07
9.013907659e-07
9.015154947e-07
9.016704532e-07
9.018463714e-07
9.020347071e-07
9.022272689e-07
9.024146852e-07
9.025952713e-07
9.027639462e-07
9.029246132e-07
9.030862868e-07
9.032704877e-07
9.035161716e-07
9.038905449e-07
9.04403156e-07
9.047938137e-07
-0.03006869195
-0.007634147994
-0.03135002615
-0.04379752068
-0.04275017139
0.00819119395
0.02809729023
0.003880237634
0.0004903023792
0.0001178179836
3.711610297e-05
1.26062233e-05
4.588074675e-06
2.04280823e-06
1.273898705e-06
1.045622695e-06
9.696600273e-07
9.379294183e-07
9.224401645e-07
9.145639439e-07
9.107968039e-07
9.087351965e-07
9.074600996e-07
9.068346009e-07
9.065316319e-07
9.063162451e-07
9.061038588e-07
9.058756686e-07
9.056243637e-07
9.053391256e-07
9.050165576e-07
9.046693424e-07
9.043162582e-07
9.039674837e-07
9.036280608e-07
9.033048727e-07
9.03009803e-07
9.027559391e-07
9.025415227e-07
9.023673131e-07
9.022362955e-07
9.021554932e-07
9.0212755e-07
9.021494737e-07
9.022201273e-07
9.023370709e-07
9.02492526e-07
9.026772157e-07
9.028822868e-07
9.030988107e-07
9.033168034e-07
9.035304891e-07
9.037362889e-07
9.039341939e-07
9.041310839e-07
9.043390798e-07
9.045797967e-07
9.048912126e-07
9.05263155e-07
9.055073838e-07
-0.02102469995
-0.02166212144
-0.03849333965
-0.06234508366
-0.06256587838
-0.01332417279
0.05559134242
0.01344380957
0.001532108307
0.0002670521572
6.795039809e-05
2.002798809e-05
6.421954485e-06
2.517953125e-06
1.418533533e-06
1.099897229e-06
9.947758901e-07
9.5152284e-07
9.305652948e-07
9.187893131e-07
9.131696063e-07
9.10038241e-07
9.083427128e-07
9.075313205e-07
9.071854466e-07
9.069577751e-07
9.067154586e-07
9.06479084e-07
9.062419172e-07
9.059615032e-07
9.056288001e-07
9.052618521e-07
9.048762633e-07
9.044842497e-07
9.040979914e-07
9.037264372e-07
9.033788987e-07
9.030682673e-07
9.028021666e-07
9.025816174e-07
9.024090408e-07
9.02291027e-07
9.022322458e-07
9.02231522e-07
9.022861396e-07
9.023934214e-07
9.025469523e-07
9.027370531e-07
9.029545759e-07
9.031899458e-07
9.034331569e-07
9.036763636e-07
9.039153435e-07
9.041489589e-07
9.043809456e-07
9.046206199e-07
9.048842328e-07
9.051963804e-07
9.055293352e-07
9.05720173e-07
-0.01273163519
-0.02368245855
-0.05057872348
-0.101404943
-0.09290789859
-0.03545194494
0.06920776799
0.04379469088
0.003001457345
0.0005506092813
0.0001135837913
2.807774812e-05
7.975500958e-06
2.886896484e-06
1.545445271e-06
1.15875642e-06
1.024842663e-06
9.686381283e-07
9.400553767e-07
9.244234965e-07
9.159594235e-07
9.112883568e-07
9.090042351e-07
9.079992555e-07
9.07541298e-07
9.072307964e-07
9.069625995e-07
9.067460704e-07
9.065397824e-07
9.062825714e-07
9.059616508e-07
9.055946425e-07
9.051963976e-07
9.047793117e-07
9.043592255e-07
9.039503772e-07
9.035622041e-07
9.032059475e-07
9.028946659e-07
9.026341831e-07
9.024258407e-07
9.022747847e-07
9.021871056e-07
9.021636292e-07
9.022013432e-07
9.022972862e-07
9.02446112e-07
9.026382329e-07
9.028640545e-07
9.031135317e-07
9.033763036e-07
9.036436753e-07
9.039104129e-07
9.041746865e-07
9.044384661e-07
9.047090216e-07
9.049989338e-07
9.053247659e-07
9.056488591e-07
9.058078141e-07
0.02150229747
-0.01834288467
-0.07029460724
-0.183218942
-0.151911581
-0.05812882508
0.08984736549
0.08119916326
0.008742555514
0.001135677528
0.0001866227531
3.834740126e-05
9.581848437e-06
3.242500873e-06
1.680317548e-06
1.226717756e-06
1.061357906e-06
9.889599631e-07
9.520471374e-07
9.300509916e-07
9.187468739e-07
9.130797991e-07
9.099360382e-07
9.083229912e-07
9.075712654e-07
9.072017729e-07
9.069965129e-07
9.068508832e-07
9.066808521e-07
9.064473133e-07
9.061507434e-07
9.058022098e-07
9.054110689e-07
9.04988061e-07
9.045501396e-07
9.041163275e-07
9.037000847e-07
9.033118984e-07
9.029654603e-07
9.026716645e-07
9.024336683e-07
9.022550066e-07
9.021420251e-07
9.020975386e-07
9.021190314e-07
9.022033313e-07
9.023456875e-07
9.025368284e-07
9.027669347e-07
9.030256859e-07
9.033023745e-07
9.035877448e-07
9.038760748e-07
9.041648625e-07
9.044547149e-07
9.047513878e-07
9.05064639e-07
9.054034193e-07
9.057171236e-07
9.058421978e-07
0.07016164466
0.02064833355
-0.09018256465
-0.3311490224
-0.2339273785
-0.05803695244
0.1286069674
0.1262244624
0.02035403359
0.002524118876
0.0003140160341
5.03242207e-05
1.094466984e-05
3.543109018e-06
1.814809319e-06
1.29820532e-06
1.098069754e-06
1.009219052e-06
9.62918436e-07
9.361684219e-07
9.226015384e-07
9.148093128e-07
9.105799653e-07
9.084945967e-07
9.075327789e-07
9.071046538e-07
9.069154957e-07
9.067991535e-07
9.066645287e-07
9.064770788e-07
9.062280765e-07
9.059157099e-07
9.055456214e-07
9.051309765e-07
9.046905685e-07
9.042456935e-07
9.038136755e-07
9.034060051e-07
9.030356114e-07
9.027169231e-07
9.024563328e-07
9.022565694e-07
9.021237016e-07
9.020617346e-07
9.020691838e-07
9.021427548e-07
9.02278023e-07
9.024660969e-07
9.026971149e-07
9.029606644e-07
9.032457746e-07
9.035432418e-07
9.038467497e-07
9.041536156e-07
9.044632023e-07
9.047791942e-07
9.051090374e-07
9.054558439e-07
9.057549856e-07
9.058314944e-07
0.4434503561
0.2876241039
-0.04267708092
-0.6590438723
-0.2793464402
0.01570193044
0.1927612036
0.1591204854
0.03578800581
0.005117466225
0.0005257866276
6.34460972e-05
1.178536625e-05
3.739274843e-06
1.924618419e-06
1.358950695e-06
1.127249804e-06
1.021122606e-06
9.685274076e-07
9.416861747e-07
9.258901472e-07
9.165820225e-07