/*--------------------------------*- C++ -*----------------------------------*\
  =========                 |
  \\      /  F ield         | OpenFOAM: The Open Source CFD Toolbox
   \\    /   O peration     | Website:  https://openfoam.org
    \\  /    A nd           | Version:  10
     \\/     M anipulation  |
\*---------------------------------------------------------------------------*/
FoamFile
{
    format      ascii;
    class       volScalarField;
    location    "0.02499901733";
    object      ddt0(p);
}
// * * * * * * * * * * * * * * * * * * * * * * * * * * * * * * * * * * * * * //

dimensions      [1 -1 -3 0 0 0 0];

internalField   nonuniform List<scalar> 
5170
(
-113762.4311
13754.3507
4022.037738
-55582.43098
42507.51675
-9282.005328
-6958.656219
-12490.02851
-15424.81797
-21615.27511
-14318.71613
-17410.97986
-17339.22325
-24389.79975
-15631.75811
-14728.42619
-16206.26034
-15872.54747
-15641.1498
-15559.82396
-15634.29006
-16012.92455
-15983.14185
-9617.584574
-15903.21702
-14549.07185
-14340.12994
-14677.00241
-13900.9455
-15702.34429
-14112.32113
-15130.09336
-13947.74943
-9627.579708
-15458.08851
-15456.13202
-13762.31071
-14981.18674
-15496.07809
-16077.12705
-9098.542537
-8882.205089
-12533.47997
-7517.763885
-9919.454052
-8684.988507
-8391.88345
-17928.18357
-8427.591953
-10142.49502
-11367.48395
-10759.25284
-2476.480234
-10740.33699
-11268.20499
-9604.233758
-9608.157256
-15646.77951
-9603.159254
-11597.25646
-9768.751699
-8777.078924
940.3992601
-8638.858899
-8926.471795
-9584.95917
-9582.372676
-17084.01592
-9496.057473
-11895.78756
-10271.54039
-10436.12671
-2739.349506
-10179.63749
-8882.074183
-10882.50477
-10201.59318
-16335.84538
-9752.888652
-13871.67573
-9210.441102
-9435.475086
-4090.76854
-9458.000539
-7812.455164
-12416.58786
-18049.95534
-17089.06883
-11841.18237
-16321.13102
5992.268715
-849.8791217
-12495.91543
640.8539809
2081.898306
72121.70026
102614.3969
44062.63194
23221.00783
81557.7024
24693.87035
19182.4842
56480.51838
7776.59754
157993.6362
-31679.10982
-65469.77313
-11892.17003
-40561.81244
-41930.17071
-40125.35821
-15119.05191
-41840.76869
-18326.72172
-32716.54474
-8378.105165
-17267.03463
-6009.191649
-11128.79437
-6145.177591
18295.90669
15224.86379
8432.368609
15383.81395
10287.90298
17399.40743
4085.160017
15960.27308
19160.68052
22241.00053
4835.668015
2201.958638
11585.41467
12817.0046
2388.140197
8347.589813
6749.207881
8047.294369
11592.91328
2067.02001
-8500.685059
3646.194848
-11936.80527
2191.831861
-7759.969632
-4994.657256
-7005.854932
-5534.372154
1247.918376
-1087.751665
-4462.100791
-5524.567035
-8538.481783
666.9283319
-3255.163955
-4796.402684
-237.5537939
744.9558122
-3415.633238
-3450.370277
-6028.593352
3237.046051
-3779.641737
-4696.621424
2045.521948
7823.056039
-5846.19505
14124.5526
-34352.61096
10364.98724
130464.153
-81405.88784
47704.05689
-69414.35961
-984.8791591
-28998.40219
94257.59023
-65779.05911
136521.8678
-126101.4511
23992.81079
-47287.65355
15020.88522
157471.7733
-134160.5888
-702.8470064
-18856.24051
31347.03331
37931.83196
-39500.41407
72753.01642
79289.49919
-41639.65012
-180016.0324
126024.5292
-527376.3435
615924.734
211013.2025
-681317.0261
296819.8595
319219.0003
20355.86703
150733.7853
147087.0347
-404760.5091
-323619.6147
314469.8112
38547.36524
-286234.5877
569574.441
-245136.1772
-194808.7631
110446.5108
-147960.3219
589722.5503
23261.6804
84487.28858
-59200.69861
-36386.86046
208268.7556
90387.58176
-124880.0863
117974.4544
108802.6645
-349168.8463
80274.12021
63172.23841
-17379.32964
84763.92184
-156800.4524
-138176.7679
177961.7989
-114894.2403
92716.47546
-152155.0823
49844.56208
44770.09308
4987.874115
1980.466512
-152998.4408
-46241.55772
-47089.58097
-8187.71139
27708.07544
-8796.944029
-40121.2044
61186.74109
62431.76223
-50036.10867
-157023.9178
189405.1903
41446.35001
-57075.48634
-69006.60762
-127695.2455
-140512.9443
-50484.87201
-28724.73288
36099.46156
-32286.38438
-16443.22253
-46862.49917
-134641.8237
-148534.64
37132.22728
-256526.7294
-171747.2006
-31943.23163
32312.61465
-85633.02352
-162123.8306
-41227.23134
-21760.66721
12873.67881
-82896.54205
-387960.3295
-344888.9834
-171018.9819
43052.50016
120816.8201
46923.35827
-5620.019257
-77445.69089
-137476.9856
-108875.1682
-31739.1802
-44096.89765
-7861.078696
-3681.782259
81150.98857
28889.8323
-15026.20332
-14998.13714
17392.14018
35388.45885
48966.37253
10661.21864
-2699.892208
41016.92053
13138.62706
-73283.33103
-9540.741888
-28621.79241
-57908.58309
31329.06654
-77762.41573
-43314.21872
-73939.73229
-68843.2693
-55478.36204
-15538.85445
-63195.80221
-65167.38459
-37896.39563
-52820.46755
-398.3396591
-39902.48197
-52868.23117
-15971.47032
-93880.65064
-23436.97582
-29838.67454
-16584.83294
-15866.55381
-37204.68684
-28999.26887
897.5963123
-19700.92808
-2852.788761
-18455.00972
18921.94958
-17657.02453
-4714.313646
9236.657694
-37424.93582
-36897.03643
21569.91368
-7333.654027
2686.933982
-1046.828187
-24370.1282
19784.39688
-4482.155007
-3596.711229
21021.38804
18294.34584
-8034.613492
268.7881711
1197.597719
-591.5001954
-18463.19644
9225.183496
-7562.056816
3093.400143
-13683.21951
-2862.891899
-6019.595931
1436.238269
-13410.7731
34309.3447
-29161.90949
756.4636765
1911.353806
-12649.93577
17178.95031
-9116.226811
1967.910344
-8403.977603
-7572.727818
3487.679798
5478.288915
-9426.637948
-5377.095058
-1934.558847
-8695.588873
-17128.79499
-822.158474
4443.210021
-17039.19362
15179.72133
3432.045314
-9312.253893
573.3264184
-4389.533106
6986.166237
-1978.671469
-6752.957332
3286.103347
-6265.851698
12689.22313
-25408.54859
7663.529134
3033.53201
-4104.607502
-21932.8789
14064.50524
-4406.948807
-8412.068574
10545.19684
-19012.36118
9695.333706
-3795.484179
-2892.124107
3090.670545
-9111.116707
-4352.026233
-879.3919439
1691.583112
-4392.515851
11657.58232
3579.134489
-2633.500274
-677.6494008
-1350.29398
5666.377326
-2558.740713
-2503.187441
3564.851338
-6796.58991
14273.96727
-6464.659189
843.8012899
-147.3376951
-2488.927369
-8371.611916
-1451.307937
-203.590116
-2772.42407
-1546.255942
-3275.603326
-1748.283916
-1373.638922
-3038.779561
-116.3935161
-5393.40113
2606.391531
-2071.60728
-3984.18959
-1304.067094
2855.005469
2097.523281
-3150.131685
-2524.768466
-2252.051402
2818.187576
-355.4003697
-2644.897967
-2721.531541
-1380.507407
2810.50899
-2984.621329
-891.9502955
-2172.343367
-3420.757205
3002.890005
-3616.938419
-1745.634703
-397.6374668
-4271.310326
1288.289224
6401.870971
-4103.409038
-4328.396672
1407.571059
-8566.972316
-3146.310038
-1077.951165
-2088.905656
-2248.967606
4249.087388
2113.943196
-4374.23352
1407.175215
-3891.747183
1094.342689
417.202428
-1346.730715
-2100.40048
-96.89053883
-786.9482398
-3357.99545
297.0749813
-1014.57014
362.7645642
-8943.99104
-3214.304591
-29.77211286
10.11197604
189.3898495
-7782.323182
2436.720911
-2891.606692
2134.485275
-1023.954842
-6609.446598
1400.508164
-337.495963
-877.2967206
1887.376368
-7115.765771
-203.6351421
-167.8145103
808.2105541
554.3362373
-7918.174985
1047.217793
-1634.398591
1596.473317
826.3707714
-6938.533057
-61.73610738
-117.676117
249.9981194
991.1152962
-5790.740976
303.8873142
181.2003153
-1208.137763
2282.472836
-8574.60774
-431.4405083
707.2373052
-1181.541991
755.2219526
-1100.62026
333.4458677
-426.5767947
-237.4927295
-134.2509641
-1060.493526
-491.7319124
-324.231517
24.86942731
-363.8617904
-1859.855235
-1012.115382
-492.2752984
120.4343307
-200.4600863
-1540.530049
116.4612471
-752.3206489
-74.76415539
-165.9274092
-348.52819
46.83055523
-300.2095121
-122.5350745
-238.7088628
486.5694494
2137775.682
-2065978.622
-2645674.848
-1581095.171
-341803.3763
-276714.0495
-53701.1968
-189006.9748
-13424.85235
-87345.57199
-160025.9818
-16122.26497
-174803.4904
227799.9274
-147062.1148
638915.541
-334509.4748
-17679.99784
-113085.7441
-12187.93689
-270133.411
-68769.73427
-39252.19152
162421.2486
31556.82729
28514.0437
106908.0239
527.1899967
-52875.56261
-3127.239039
38539.89934
-134983.1983
-72093.09275
-25725.48684
5615.25481
-54283.94293
-44521.82044
-54217.8042
83930.88802
49531.20035
25546.73471
-43748.62898
-25210.09216
-52725.17814
28230.39136
6757.073752
9988.518941
-19362.00102
-19093.91777
-22196.81634
-19335.26972
-10851.28792
19520.70141
-24249.00735
-6619.804805
-4660.388084
28035.36771
25938.90736
24810.7878
23519.61702
30228.19978
25366.69476
21248.73127
28470.49503
2566.687324
3030.914919
5533.444856
3651.710149
-895.6003254
-2538.733554
-1657506.683
2686467.06
-244867.3606
663102.3194
-541874.8714
-1029447.064
515862.7246
-1701440.924
1122689.237
-517250.5388
-1341261.078
235143.2904
-347388.1981
737974.7452
-652418.366
-625674.1061
-526037.6595
521399.0052
131806.0356
-545122.7743
-445679.0628
-381292.1933
498859.8062
-736454.4668
6442.984973
-626837.2764
73415.92283
307110.9109
-588068.0244
31500.15041
-167963.9565
-250324.4282
-189904.2447
138995.9975
200273.1762
-203641.2876
30176.562
-131060.6964
387782.0413
133533.5888
-142377.0605
17646.20902
-141833.68
-172130.1205
-36688.85489
-55709.15583
-187042.1501
-178939.268
61836.74256
178625.2569
-181944.9498
80995.69109
102185.0076
-51149.98459
28070.99753
-58844.47818
-16624.23049
-79871.67764
-7295.730767
-84825.48617
190857.178
-87223.44695
-199246.1507
459283.1815
-764340.5003
-172761.7821
-43230.12702
167323.1724
-2836.37537
4170.71244
-270839.7563
-69245.81473
299630.3138
-155084.8916
-792352.3928
176079.4853
-197648.2727
-510624.2524
27760.27536
161527.9871
-27677.63745
98636.1714
187284.134
-9598.524517
-538837.0481
133998.2386
131527.8649
23150.46258
-306295.5467
-959420.3806
28356.11774
2332.96663
-19313.33436
-66025.12849
-121540.9787
15069.29567
7902.074864
-329.8218038
-5518.599721
-6323.622985
-26543.33274
-61788.38471
-50973.93876
-63574.15183
-61131.48011
-59468.22364
-66749.39857
-56751.0518
-62961.77084
-54690.62212
-51415.80688
-45741.30603
-42794.66125
-43106.72489
-36470.93204
-46866.7015
-29395.16387
-30237.83942
-24610.89266
-25659.92348
-24426.26357
-12642.4143
-19544.07121
-9304.514966
-13604.60359
-13226.87366
-5457.748592
-6629.912294
-3125.295975
-4413.373657
-10727.86258
1166.95613
-243.1404427
2074.45663
2076.331775
2257.272002
2366.693183
3465.194004
2903.437573
4110.817719
5972.305116
2155.259636
2709.833745
3636.510255
3372.866444
1998.681876
-281.9079418
2094.066154
800.2312101
2416.400721
-4724.837853
-920.1741238
-562.8097617
-955.1834646
-3.233588731
7966.379448
-3468.985007
-2689.846241
-2300.145467
-2245.107682
-282.8130917
-1626.964477
-7047.831838
-496.406096
-5715.926335
-2289.094022
-6967.474735
-1538.227246
-6517.692509
-2936.390593
-5583.204146
-3576.345975
-4962.799125
-3711.815944
-4469.63241
570.4366527
-5197.06572
-2451.094747
-4983.348531
-2527.930582
476.9145262
-2128.95412
-4745.490666
-809.7986613
-3872.896539
1388.731425
-1150.735222
-2600.844808
-1385.702571
-1853.571228
-8479.4671
-1092.673031
-759.5029237
-1863.52126
-603.724529
-4666.407378
-764.8660351
-510.4464769
-1180.623083
-711.9215119
-2817.401065
-161.2102136
-1676.224167
558.4431386
-1154.070318
2515.342027
-454.0770388
-629.5345609
-692.5410759
-271.946777
1338.524921
-917.527425
-733.3933985
-667.1840616
-927.8124004
3577.944474
-1464.595129
-1337.419443
-230.3172713
-1820.870305
-3641.199232
-1536.165202
-1182.819048
-1286.155286
-1535.857139
-2303.21957
-1849.027316
-1002.946049
-2423.263808
-944.1458709
-2629.407907
-2231.799735
-1028.043516
-2250.896545
-1286.904912
-287.1845693
-2360.581016
-1134.997337
-2531.404931
-1285.056989
-453.3851676
-2192.083707
-1744.128083
-1961.988939
-1966.626836
-338.1256328
-1727.727801
-2516.469318
-1398.530472
-2344.331631
-370.1431117
-2317.244339
-1871.430018
-2001.185631
-1980.68845
-1221.310795
-2088.433785
-1812.046303
-2169.321199
-1778.30196
-3509.206608
-2069.168012
-1451.215499
-2346.354925
-1433.057627
127.2076793
-1995.425539
-1487.601776
-1671.628223
-1465.306766
-1082.110693
-1454.205653
-1265.277112
-1495.623832
-1276.227294
-732.5812782
-1284.040163
-939.3221839
-1314.77066
-1011.734674
-3249.764141
-612.4685217
-972.2825753
-779.3771934
-826.6469892
-2847.843757
-396.0517282
-508.576902
-633.6657721
-502.0576912
-2411.142387
-108.3039473
-424.6259257
-106.9604978
-444.7981022
-1842.339773
-68.05998409
-72.76215515
22.21079273
-166.4549984
-2323.595112
19.27480327
195.7342204
59.65304085
18.00458282
-1984.201176
268.3832447
169.66253
1.807836306
190.5134652
-1700.251411
144.6965594
134.753548
-184.4336054
159.5335881
-2361.091841
-3.045532324
20.96825296
65.10505886
19.8412925
-351.0398891
-71.05334495
-106.8703102
-98.60670211
-104.8840771
-505.6355914
-225.4388616
-198.9115227
-216.8440705
-227.436257
-745.8637057
-250.248259
-386.16702
-176.5632775
-373.5879356
-636.8171221
-279.2667031
-367.5686355
-266.6670076
-346.313287
-216.8610286
-262.484906
-368.5600516
-236.4659944
-304.8813623
14.31708324
-165.4283442
-175.7494238
-194.4324057
-200.262311
12911.64921
-9083.535278
12915.06112
-2162.217716
1217.811704
-4345.822864
-2580.688653
-2479.940542
-3179.439284
-2747.704485
-3658.83225
-2322.407476
-2667.893171
-3543.238555
-3409.614689
-3624.169791
-4032.098577
-4207.097847
-4341.912556
-4432.152291
-4491.327938
-4548.208198
-4562.912175
-4565.104908
-4524.714981
-4414.561005
-4269.432162
-4092.191956
-3867.44701
-3593.105707
-3268.064033
-2893.420176
-2470.700821
-2004.810308
-1505.437652
-986.6719798
-457.2766656
94.93037683
653.1202383
1180.652341
1681.513727
2153.757651
2569.208353
2915.306927
3184.166414
3364.513193
3453.071827
3435.060323
3313.835114
3103.890814
2808.999126
2435.56529
2001.208344
1522.967506
1024.524518
526.1393574
72.26500056
-333.7878183
-702.8743779
-911.4452083
87069.18803
-17455.45642
6828.687612
-5077.247274
2929.417176
-4816.002076
1024.794794
-2453.309584
-2395.354895
-1591.918493
-1980.311682
-1782.051552
-2588.526898
-2697.867044
-2478.598162
-3121.380452
-3426.249566
-3485.739027
-3662.309949
-3866.453032
-3970.09672
-4004.09021
-4067.995759
-4112.269269
-4096.513354
-4042.95825
-3950.560995
-3811.622191
-3620.907262
-3383.029855
-3099.363956
-2770.766329
-2398.558454
-1986.295835
-1537.535434
-1056.878476
-551.3353385
-33.19985643
487.2462159
1000.280863
1490.475846
1944.154088
2348.711671
2694.984641
2966.069525
3156.048061
3254.064991
3256.630974
3163.116991
2974.103828
2696.461099
2343.688832
1928.838457
1473.109425
995.8232805
515.3402262
68.87108574
-319.5143771
-662.4174188
-897.8306024
128282.7725
-4611.41552
6103.957905
1354.90962
3178.551391
1275.967807
-1565.230941
1607.059715
-228.9105534
-437.4267675
103.8070519
-947.6205109
-1153.720426
-1210.915305
-1447.56364
-1897.869027
-1979.538557
-2199.12748
-2513.520451
-2678.846893
-2798.007077
-2946.863238
-3075.942419
-3168.16494
-3232.356023
-3259.065094
-3248.785891
-3193.104033
-3092.20888
-2946.346853
-2754.55952
-2516.353499
-2232.380813
-1904.892983
-1537.146503
-1133.670224
-701.6498669
-248.9849695
214.3233691
677.6156755
1128.489988
1554.84914
1942.864822
2280.695618
2554.164234
2753.980155
2873.097573
2903.734327
2845.472445
2697.070674
2463.231181
2155.216155
1786.093705
1373.862611
932.7880994
491.3548173
77.6528804
-282.9874939
-599.0203169
-846.8225636
171771.3255
-26501.98728
7841.294635
-521.1490371
1857.808724
1675.276379
1197.05378
2884.440396
1762.182622
1748.920294
1107.325914
839.1340176
865.6213692
536.251569
365.9581365
71.49339317
-192.880737
-477.8292989
-744.4242374
-998.3566636
-1227.48373
-1439.950466
-1646.787436
-1825.725892
-1988.825605
-2122.386636
-2215.057531
-2276.963509
-2302.340724
-2284.004948
-2219.93244
-2110.766383
-1955.174143
-1751.470007
-1504.614316
-1215.771847
-891.5699878
-535.3757387
-158.2531327
232.4129131
624.7603886
1007.018251
1366.790665
1690.119527
1965.00946
2179.476536
2325.407895
2394.442883
2383.800465
2289.912529
2117.899831
1877.30229
1576.839835
1224.89076
851.0285004
464.0754325
92.01811331
-233.3966458
-459.2163489
-723.0048846
165666.5455
-42970.82165
9724.160305
5110.888245
3186.871355
4165.349117
4887.911266
4170.684635
3913.965444
3728.864664
3022.880847
2966.042668
3256.720741
2851.214439
2522.62781
2293.333238
2001.714074
1690.853403
1379.689396
1074.48266
782.3977676
472.7556842
157.1597458
-122.6902395
-391.2452304
-647.6141082
-882.5223602
-1089.873096
-1265.410625
-1403.50039
-1499.159224
-1554.571211
-1559.02727
-1515.073334
-1418.673667
-1278.488735
-1090.923078
-865.5089492
-600.543199
-308.4604745
3.433908279
323.448077
642.7070292
945.5141437
1217.507178
1449.609194
1627.993776
1745.06128
1792.552821
1770.511854
1679.524933
1525.682314
1300.572921
1044.492149
749.2528516
421.5675043
159.4999746
-117.0346231
-353.3208047
-576.3142526
-51521.25078
9852.324336
23708.16338
-1288.863242
7228.120794
7077.551288
4749.49845
5837.585065
6565.740976
6005.046735
5844.939436
5409.667429
5495.81365
5192.405159
5006.258039
4893.199639
4482.729342
4091.671568
3834.100185
3478.480337
3088.298277
2692.434246
2295.207893
1899.506178
1489.51988
1100.304246
712.4617014
338.5540416
-2.598829747
-312.9099998
-594.7359335
-834.3021278
-1021.2119
-1166.688553
-1253.98294
-1293.26837
-1261.031503
-1191.34949
-1066.039238
-892.1778733
-679.5987836
-438.2453829
-174.3544189
98.06048351
362.1232912
610.2143514
824.6842606
989.3069406
1108.562029
1167.4862
1162.681962
1093.893902
992.626365
844.2336953
615.2118197
422.7248733
240.9008832
46.20064868
-209.2826244
-382.047722
-96071.97511
32073.47811
-4437.593798
11598.08871
8531.291743
6144.679856
8706.498105
8682.553856
7991.045407
6724.032581
8735.76088
8225.073222
7846.12112
7622.376243
7191.808772
7325.814684
7064.36025
6508.772651
6363.294124
5958.980162
5576.585303
5092.048028
4601.480367
4099.672157
3568.274111
3015.777976
2498.582905
1963.742514
1447.409263
952.1294209
463.4324018
35.79929827
-344.6706444
-692.6425926
-974.0855491
-1208.546736
-1383.950026
-1461.344633
-1492.841994
-1472.185826
-1373.488398
-1212.451358
-1038.903883
-806.7043928
-557.3801644
-297.844742
-54.28427227
178.4975446
366.5601073
508.2174398
602.2742784
647.2358336
637.4956014
692.6492237
570.2621091
435.1314607
340.5990563
146.5217984
-43.06218159
-180.7616969
-95526.02972
43822.92498
-11982.99199
-4889.13596
19708.50877
8104.345968
6830.631698
8913.238906
12441.7236
7729.690405
9172.830673
10095.27967
10155.50422
10277.14287
9363.647011
9115.338988
9483.370333
9080.306227
8620.378821
8084.940444
7823.040944
7191.985899
7141.699891
6409.462903
5753.981684
5065.283055
4339.514472
3703.912616
3055.335886
2319.830339
1653.167839
1099.083242
473.5305487
-102.2493342
-568.5999046
-972.4749974
-1416.558713
-1659.650877
-1849.45487
-1990.890029
-2035.95646
-1994.774411
-1875.779283
-1754.863154
-1495.751483
-1215.41645
-999.3983988
-642.7147909
-416.3101844
-107.3486897
77.15079276
236.3389245
361.541464
447.0834657
466.5992216
455.6162539
382.3710175
285.237116
172.0359069
54.17297017
-66281.40395
36352.32741
4106.18081
10423.5331
15624.46143
3725.165082
10359.16426
7399.711757
14095.17407
7555.6943
10408.51104
12495.52742
9688.272933
11086.64753
12471.71911
10830.94154
10606.15346
11175.10884
11012.20459
10356.3009
9870.753269
9594.686977
9050.943308
8494.642973
7815.686119
7077.541416
6290.600322
5427.583114
4704.177139
3894.949435
2982.036117
2175.747326
1472.024953
689.8829558
-73.95265447
-696.8921518
-1316.394034
-1662.85553
-2120.730896
-2502.180614
-2628.449045
-2719.890316
-2715.395285
-2603.784753
-2406.920371
-2134.082732
-1817.124944
-1464.792238
-1118.776846
-766.1223192
-456.9872618
-184.8139754
50.67137417
235.2365558
363.6757075
436.6898823
461.8266145
448.7846875
389.8824652
298.9277401
104210.4443
52839.27088
-64887.87025
30088.55782
-21300.13675
21025.81683
3869.598516
11169.81378
4242.823827
12258.67939
9768.885427
10540.2375
11678.79983
9805.89671
11215.66242
12975.39694
12748.67657
12198.11508
11722.28409
12061.18512
12075.94473
11420.88849
10749.89702
10298.51488
9738.924374
9004.202779
8176.704132
7280.343994
6328.069975
5321.571379
4326.054931
3349.05803
2374.333814
1420.503446
487.3284391
-368.9728961
-1128.805289
-1743.338312
-2312.164188
-2751.145167
-3073.226608
-3274.285118
-3354.959163
-3318.919291
-3171.439555
-2920.128687
-2589.449958
-2204.860967
-1789.505426
-1367.084719
-961.1793752
-582.6365619
-247.3213634
37.64184396
268.7637575
438.7036172
551.5723709
610.7517327
603.5014318
540.5525148
-76370.28348
12001.18206
-54783.25875
63136.795
-11220.84415
4351.184838
-6522.977481
10360.16015
9140.889697
1858.620078
7844.197371
8633.933059
11154.69344
9149.941856
8773.910788
12189.04186
12862.06737
12782.82403
12457.43994
12637.96452
13150.63715
12954.54394
12248.50623
11726.73025
11234.87193
10584.93893
9769.295958
8842.045348
7838.015055
6766.553222
5636.468759
4474.950295
3317.845801
2188.573896
1102.971586
80.14558154
-853.4979861
-1670.966837
-2373.12685
-2956.835444
-3413.566165
-3728.777986
-3897.287298
-3926.296913
-3821.11022
-3591.8766
-3260.346931
-2852.068316
-2391.553522
-1904.528638
-1417.496722
-949.7346148
-517.8474074
-136.2129441
188.670905
446.4860103
635.7489174
761.0801193
806.092402
765.4598163
-75663.42436
-62894.48986
81841.18603
63438.74697
-26994.99563
-1749.417308
722.1061804
-3814.22899
4235.086923
-5440.387523
13048.57736
7762.051606
2855.890417
7069.185597
9684.348624
9577.322195
10584.77102
10931.29139
12306.85483
12512.54567
13236.5873
13161.84352
12857.63196
12628.51662
12383.24669
11865.19287
11056.41703
10120.70916
9115.403937
8005.44239
6799.586948
5541.941299
4265.467737
2996.136139
1762.337822
587.9614841
-503.3985248
-1483.403881
-2334.489483
-3052.01006
-3628.241676
-4048.795956
-4304.529037
-4399.111664
-4340.920345
-4140.214547
-3816.019011
-3394.894944
-2902.394148
-2365.964705
-1813.836654
-1270.526593
-756.3178399
-289.3193616
116.8073329
450.7320648
709.4455198
892.7265185
977.7910958
959.9881102
23129.40993
-265268.5478
44969.86135
-32957.73472
86516.36691
13788.02164
19131.28009
-34659.88787
-21046.87035
-12329.25338
6743.011991
2998.322957
153.0795361
3691.439753
6140.954288
6383.158508
6982.710962
9048.31663
10616.86103
11716.45081
12571.05696
12457.13655
12696.35686
13003.71683
13026.05287
12610.55585
11887.83938
11044.23164
10100.63825
9009.332374
7786.148396
6482.27938
5133.677995
3768.053008
2420.242314
1123.78861
-95.74690239
-1211.25731
-2193.755113
-3028.892293
-3711.17777
-4228.286372
-4567.875767
-4729.565583
-4721.908722
-4555.534472
-4247.304836
-3823.818107
-3311.992258
-2740.651184
-2140.034767
-1537.887091
-958.3446841
-422.7761522
50.46913101
447.3128188
761.4522912
989.4018289
1114.519907
1109.652771
105807.6099
-159406.3248
69794.77919
-77897.67695
-39413.84665
-82158.26023
-27194.3935
-4303.713179
-953.8903959
-26368.02902
-12667.5385
-5426.959312
-1400.10125
-441.7648375
-1217.034837
623.1837992
3259.783048
6012.265955
8826.295732
8453.35935
10235.27969
11609.667
12280.58424
12653.09668
12813.65401
12668.05774
12260.73768
11641.53157
10798.12455
9749.046833
8549.569165
7247.609647
5874.055359
4457.101797
3034.471279
1648.199863
331.9039419
-886.9132558
-1976.859146
-2913.142012
-3686.558983
-4287.646531
-4702.999959
-4928.139342
-4970.370951
-4840.554604
-4554.238403
-4137.55727
-3618.32051
-3026.386741
-2393.726256
-1750.738126
-1124.237876
-538.3926042
-14.98159388
429.5909523
786.4646521
1049.162952
1199.408303
1206.248843
454891.4971
-112064.0695
-167923.7169
18428.2908
-97892.02844
-39663.8509
2297.717092
-59334.67652
-5339.145646
-20914.858
-27421.31365
-17625.9326
-8304.889037
-6845.325514
-6913.058245
-4779.60265
-1582.47303
1294.056387
4870.036277
7009.352999
8555.427061
9671.468753
10701.16499
11623.87008
12209.97671
12404.89653
12271.81289
11840.54035
11130.85722
10191.13609
9074.614838
7818.33316
6455.004678
5021.84051
3561.497428
2120.225501
738.4958949
-553.1689174
-1723.314862
-2739.621683
-3586.288911
-4255.397565
-4733.578682
-5013.787683
-5101.179006
-5006.684662
-4745.081549
-4341.856938
-3825.294852
-3225.970381
-2577.253989
-1910.792442
-1255.901841
-638.4356392
-82.44442432
392.6314576
776.2416334
1062.498053
1229.190744
1241.753696
402537.4878
-330603.7388
-225296.8989
96884.38563
-46631.82731
-62703.38871
-37176.19452
-36689.58044
-45712.68668
-23035.27418
-25261.39803
-27471.9723
-22983.66454
-16004.86838
-11023.8888
-8452.413426
-5900.611237
-3398.913377
592.9599279
3826.694028
6046.832404
7723.130985
9197.677485
10429.03355
11304.05432
11799.14627
11933.94084
11723.75616
11195.33541
10397.7407
9380.732398
8186.235033
6856.175104
5435.14
3967.531119
2500.897813
1081.572269
-254.966748
-1476.13278
-2547.388074
-3446.645292
-4164.61409
-4689.181397
-5011.759966
-5135.682079
-5071.760731
-4834.34097
-4448.329459
-3942.177083
-3346.834817
-2696.154493
-2022.746944
-1356.850009
-726.0837444
-155.8040607
332.8439709
729.0067865
1026.213326
1198.674926
1212.572061
280785.21
-402295.8004
26137.28189
-17592.43481
-102637.7697
-56211.35992
-62275.39198
-74173.63192
-33782.38041
-36312.1285
-34487.00349
-33970.39869
-30069.29259
-24950.20892
-20026.57342
-13392.57823
-9361.05895
-5382.110427
-1891.187965
975.7709843
3473.765582
5737.678045
7705.527106
9267.923071
10398.20671
11121.1821
11465.91449
11447.00784
11082.87644
10412.78639
9488.07151
8359.171606
7074.12944
5679.919609
4223.444533
2754.57727
1323.01828
-31.65442431
-1276.459207
-2375.906077
-3303.853913
-4049.201662
-4600.820172
-4949.629129
-5098.1083
-5056.772761
-4839.944324
-4472.069851
-3981.24152
-3398.713401
-2758.209031
-2092.373658
-1431.86598
-805.4426698
-238.4853468
248.4016824
643.6208825
937.340568
1107.609896
1117.360322
23021.99289
272706.9197
-136747.3668
-78974.1
-51015.37876
-48526.90014
-64274.27664
-67519.18029
-57137.71213
-47614.62074
-51848.12688
-48064.0799
-39943.30185
-31672.8881
-24530.85587
-18539.9531
-13480.22809
-8992.006837
-4948.534305
-1326.233418
1827.328004
4469.220594
6621.571962
8335.654778
9644.221406
10553.48101
11059.05606
11165.57712
10897.30813
10302.19992
9437.979454
8357.26634
7108.878515
5741.721161
4305.47643
2851.680784
1429.987773
81.07108012
-1160.698319
-2260.328633
-3190.830741
-3940.037897
-4497.047612
-4853.337768
-5011.576197
-4982.069341
-4779.530208
-4428.052412
-3955.239168
-3391.855791
-2771.450951
-2125.817942
-1485.446158
-878.982532
-330.3910578
140.2460648
519.9043851
798.8033482
959.9008753
960.1797356
-265194.3816
-318803.8628
-164489.6095
-100490.3887
-72922.91014
-70886.37903
-58833.18397
-52688.65039
-54056.42499
-55558.24631
-53343.54515
-47529.34604
-40190.67064
-32877.09893
-26199.82248
-20167.25575
-14694.7477
-9768.369143
-5416.194167
-1699.960422
1424.357406
4042.690547
6231.247722
8019.942033
9393.578823
10331.39941
10839.05527
10937.24911
10670.68892
10087.23101
9240.194995
8177.528518
6948.886001
5603.987207
4193.059083
2767.664599
1375.647611
56.34962963
-1156.217955
-2228.110194
-3133.756946
-3861.411129
-4400.317969
-4743.672852
-4895.040865
-4864.695741
-4668.124647
-4329.063763
-3874.735813
-3335.016998
-2742.542466
-2127.680233
-1520.294266
-947.1062701
-430.3459131
9.029850138
360.8930716
617.6147748
756.8594366
748.5406288
-18187.71671
-29925.91882
-34966.01943
-40595.20278
-48537.05869
-55988.7741
-60479.43975
-61238.93595
-58650.70007
-53712.71039
-47601.56133
-40931.95913
-34305.77908
-27987.04611
-22107.32912
-16740.78715
-11907.26431
-7614.031537
-3850.955893
-570.2628944
2273.508375
4717.780445
6772.218287
8419.772628
9619.820851
10398.5329
10761.48435
10751.24213
10402.9778
9767.668887
8884.578591
7804.361017
6575.375608
5247.068986
3867.884706
2485.424295
1143.360531
-122.5235013
-1278.857851
-2293.753757
-3146.852617
-3827.117418
-4323.926201
-4633.252131
-4760.319156
-4715.926898
-4516.486003
-4185.09499
-3748.454147
-3235.482219
-2677.280621
-2102.083742
-1538.162288
-1009.875522
-536.6650946
-140.232593
173.0976523
399.8204008
511.8562326
490.1043956
-64841.45927
-63146.41374
-61366.01438
-59500.89092
-57596.51976
-55527.55084
-51959.58078
-47609.26784
-42908.24172
-38016.23066
-32902.30271
-27812.21605
-22991.37894
-18446.04584
-14183.0915
-10270.00884
-6748.118716
-3497.840907
-534.2690591
2111.124075
4429.730515
6418.824929
8081.459327
9271.058747
10118.20184
10583.54747
10707.5687
10499.76418
10003.58538
9256.310971
8303.973562
7189.514781
5957.159764
4651.595371
3317.261094
1996.704719
727.407063
-458.0210771
-1528.971697
-2458.675908
-3231.660368
-3838.035357
-4269.30112
-4524.620973
-4610.830384
-4539.687783
-4328.594363
-4000.401812
-3580.558648
-3096.802281
-2577.735736
-2049.664106
-1538.233745
-1064.767619
-646.1191897
-301.6069146
-34.58166076
152.5325636
233.1903164
197.2638934
-54912.82705
-52441.96109
-48928.57387
-45928.55634
-42974.18985
-39866.41028
-36224.16302
-32674.02111
-28794.77653
-24988.59602
-21250.81234
-17434.0286
-13947.90093
-10511.06586
-7391.412819
-4422.326306
-1689.206935
793.8897009
3074.797832
5107.410552
6843.521646
8264.256159
9359.448865
10133.33642
10529.53739
10629.19734
10454.75711
10010.79643
9336.329506
8467.435765
7441.412034
6297.403539
5073.643074
3809.583136
2543.296057
1310.688981
142.6639669
-932.4579261
-1887.697289
-2704.281759
-3371.33935
-3879.801134
-4224.37264
-4408.290301
-4440.015081
-4332.357109
-4103.082333
-3774.93422
-3372.064644
-2920.529005
-2445.348202
-1970.81201
-1519.529374
-1109.737469
-754.3331346
-467.838567
-253.387997
-114.5097254
-65.18168607
-118.6355488
-37721.45709
-34713.30995
-31898.8564
-29825.73518
-27230.96668
-24620.10114
-21695.13112
-19119.92706
-16417.66352
-13630.3839
-10948.05289
-8212.213651
-5624.387303
-3261.586672
-970.7359638
1209.262947
3157.984016
4918.332977
6459.039549
7772.714511
8853.34833
9647.65028
10163.71626
10471.46558
10451.30497
10213.50884
9751.875395
9090.830175
8270.774267
7309.497223
6244.186163
5104.403524
3923.942135
2736.250644
1572.543142
460.7959398
-573.6938733
-1506.40135
-2318.387674
-2997.976964
-3535.996197
-3926.091217
-4168.310199
-4268.538297
-4236.137373
-4085.600162
-3835.615364
-3507.019694
-3123.044555
-2706.926802
-2280.99514
-1866.744899
-1481.535526
-1141.225034
-854.8954746
-633.1769819
-477.9726209
-388.4037467
-372.2190398
-443.4153149
-22325.62735