/*--------------------------------*- C++ -*----------------------------------*\
  =========                 |
  \\      /  F ield         | OpenFOAM: The Open Source CFD Toolbox
   \\    /   O peration     | Website:  https://openfoam.org
    \\  /    A nd           | Version:  10
     \\/     M anipulation  |
\*---------------------------------------------------------------------------*/
FoamFile
{
    format      ascii;
    class       volScalarField;
    location    "0.02499901733";
    object      ddt0(rho,O2);
}
// * * * * * * * * * * * * * * * * * * * * * * * * * * * * * * * * * * * * * //

dimensions      [1 -3 -1 0 0 0 0];

internalField   nonuniform List<scalar> 
5170
(
-0.2952102876
0.06972295774
0.007742534344
-0.1476660391
0.02851779992
-0.03589362334
-0.02869509627
-0.03855958671
-0.02744864874
-0.03492191074
-0.02569303129
-0.0345992937
-0.02991843625
-0.03133174648
-0.03111748401
-0.02659744977
-0.03194054515
-0.02839984102
-0.03039227702
-0.02946407336
-0.02757355598
-0.02963749003
-0.02810167557
-0.029097643
-0.02847542208
-0.02520108106
-0.02513890481
-0.02520420254
-0.0251269952
-0.02490437305
-0.02390870376
-0.02677259152
-0.02179036191
-0.02750370524
-0.02418067926
-0.0265415212
-0.02275703725
-0.02552810947
-0.02362605987
-0.02425322269
-0.01371058371
-0.01380939028
-0.01981177925
-0.01434454545
-0.0138192293
-0.01513398227
-0.01383931177
-0.009999862568
-0.01490253603
-0.01359890844
-0.02148941562
-0.01905530592
-0.01413794965
-0.02021611407
-0.0209518752
-0.01703441435
-0.01754441925
-0.01691527411
-0.01748508657
-0.01823268552
-0.01745578035
-0.01569571173
-0.02031396116
-0.01557208902
-0.01638162051
-0.01734816673
-0.01759217314
-0.01958776258
-0.01739099629
-0.01737803397
-0.01959983584
-0.01977715499
-0.01934825005
-0.01953961111
-0.02015935285
-0.02179098999
-0.01943837521
-0.0206913615
-0.01995802006
-0.0211147111
-0.01804477941
-0.01864920252
-0.01789405633
-0.01837989093
-0.0181134062
-0.01820884647
-0.01683449534
-0.01580891568
-0.01853772879
-0.01529430656
-0.01716655921
-0.01602419995
-0.03524812163
0.002014824653
-0.02756601016
-0.01290559399
0.0235443549
-0.01398782672
-0.00885912592
0.004909474987
0.03459089473
0.03542763695
0.04018886464
0.03361861025
0.07554632468
-0.01406934984
0.004304892821
0.0141639309
0.003592703798
-0.01974685216
-0.004126010262
-0.00571436519
-0.003927072435
-0.01117589585
-0.00789629208
-0.006452392354
-0.001000798745
0.001360787295
-0.005127975244
0.004183862338
0.0119296205
0.009518604556
0.008587891583
0.000694985905
-4.413478677e-06
0.00826953861
0.002831897028
0.003704295968
0.002002484865
0.002406977309
0.0002162381313
0.008520635161
0.01134773542
0.003078620063
0.007721649376
-0.04367439264
0.0003164272715
0.001651631923
0.003160976629
-0.01962466031
-0.01973311588
0.007807836512
0.0004257851121
-0.008035906105
0.0005490711001
-0.001616980929
-0.01002925742
-0.009356789576
0.01006823422
0.004264142649
0.002942988451
-0.0008373371185
-0.0002690791867
0.004318490698
-0.0001378925045
-0.001355482452
0.004718789468
0.005570765586
0.004548053695
0.00130339868
-0.0001095417961
0.00402757085
0.003680734743
0.0001575502211
0.00308891003
0.003208971697
-0.0006998766073
0.001163711459
-0.003113513731
0.004653874416
0.01786817941
-0.008079684037
0.005242535968
-0.005305040994
0.00362411453
0.001611685387
0.01284762364
-0.005041277157
0.01803142491
-0.01030678435
0.0072663333
-0.001131573694
0.005037168059
0.02053485736
-0.01195597288
0.004035099297
0.002155328045
0.007158176328
0.007216834752
-0.002553275281
0.01068656619
0.01251600044
-0.0008656182959
-0.01730340945
0.014306029
-0.04662743426
0.06889269185
0.02390642551
-0.07086401152
0.03385845968
0.6304022221
-0.1563484259
0.1134454988
0.1032489221
-0.6314184066
-0.8850352705
0.7736316821
0.053189171
-0.7188520431
1.018807921
-0.5936688184
-0.4841346779
0.2901135945
-0.5127799334
0.7252520854
0.05877543706
0.20216091
-0.2482102329
-0.4104661981
0.3279614176
0.2238541464
-0.2884326904
0.3987979769
0.217149751
-0.4056874199
0.2098537202
0.1910465539
0.2562879706
0.4021765763
0.05886500793
-0.3816368959
0.3843132647
-0.1599572114
0.40187777
0.2746062372
0.06106818221
-0.1184361992
-0.2139082315
0.0726261569
0.1187900123
-0.2695482057
-0.3510747175
-0.3935771742
-0.05138778519
0.09335117303
-0.2899959616
-0.1842845363
-0.204942841
-0.1674425319
-0.1672020766
0.3590706149
-0.01139610866
-0.2385469413
-0.1960281567
-0.2023930527
-0.2466349967
-0.1588720247
-0.1786762303
-0.1191974711
-0.1697413519
-0.4932535226
-0.3112037805
-0.3527860459
-0.3346759586
-0.1611445965
-0.1253540521
-0.1422857196
-0.07776744706
-0.05179568388
-0.1429185841
-0.1166328697
0.04255498638
0.05161614187
0.08179919389
0.01512551849
-0.08539067407
-0.002230194482
0.1327622201
0.2244049096
0.1840177585
0.8788970011
0.6072673433
0.3387735765
0.194257505
0.1935354104
0.01907603459
0.0163789031
0.1175672053
0.1915481601
0.2507212349
-0.07545843506
-0.06279989958
-0.1409802315
-0.4107161647
-0.9474746649
-0.1589734111
-0.5097155272
-1.247289622
-2.374639652
-3.948912992
-1.677499709
-2.48138956
-3.958653392
-5.633026879
-7.352001655
-5.942972528
-6.42316621
-7.440322016
-8.741267443
-10.19730133
-9.529523477
-9.856795947
-10.47048932
-11.30471927
-12.35011351
-12.07272741
-12.27587982
-12.65289992
-13.13492114
-13.8143775
-13.40101605
-13.48830598
-13.63924614
-13.87168827
-14.19638215
-13.46830295
-13.47060112
-13.57975101
-13.65838726
-13.78315058
-12.7531511
-12.81356097
-12.80705305
-12.78903274
-12.84074754
-11.62873031
-11.52508162
-11.54105654
-11.4720426
-11.39466928
-10.07539474
-9.978336377
-9.974990826
-9.893199062
-9.734143815
-8.339788349
-8.3677885
-8.299012028
-8.211437713
-8.098907059
-6.79786517
-6.719870808
-6.704533392
-6.604539914
-6.533297876
-5.30430767
-5.29531132
-5.237015583
-5.205920569
-5.013736824
-4.115539226
-4.034072888
-3.998887598
-3.985263227
-3.852101998
-3.036143597
-3.000737487
-3.003540006
-2.966740782
-2.891466814
-2.16530961
-2.194939006
-2.169648261
-2.136804385
-2.125205785
-1.561397217
-1.518000616
-1.494627301
-1.533800127
-1.430521673
-1.011213683
-1.040913628
-1.009150589
-1.012865095
-0.9712250452
-0.6613959651
-0.6733779336
-0.6436243843
-0.6626095428
-0.6066156904
-0.4747883555
-0.3872007966
-0.3970510901
-0.4138213833
-0.4557214946
-0.2081294015
-0.2558819648
-0.2661525057
-0.2138442542
-0.2912729376
-0.1167259487
-0.153895776
-0.1514126409
-0.1334746946
-0.16728012
-0.09521741872
-0.08583765288
-0.07859447547
-0.09473314705
-0.05185362847
-0.03932133259
-0.057082728
-0.05172070852
-0.05288846225
-0.03372201876
-0.03738628703
-0.03807060692
-0.0205284482
-0.04945084432
0.009602383957
-0.03817940982
-0.01799131914
-0.0203877853
-0.02700958115
-0.04349198517
-0.01787639627
-0.01538465015
-0.0219175213
-0.01885766747
-0.022759272
-0.01601515426
-0.01502865906
-0.0196613093
-0.01154502582
-0.02550329392
-0.002074969209
-0.01537558512
-0.02098702878
-0.01305820501
-0.001688055112
-0.002295379891
-0.0173850853
-0.01559403429
-0.01443617869
-0.000998625325
-0.008687991058
-0.0150195193
-0.01520340835
-0.01137289665
0.001005223914
-0.01542070752
-0.009246232642
-0.01323244143
-0.0161912727
0.0005022971802
-0.01664894949
-0.01138678375
-0.007331918716
-0.01865232826
-0.002634759754
0.01277309031
-0.01770014521
-0.01867203926
-0.001637970238
-0.03032403382
-0.0149974106
-0.008667033009
-0.01167050055
-0.01221029389
0.006992462423
0.001266440926
-0.01927230686
-0.001769619265
-0.017098179
-0.003165213672
-0.004643875124
-0.009703453746
-0.01217497597
-0.005977690701
-0.008743037057
-0.01578923286
-0.004856505739
-0.008815610176
-0.004619461482
-0.03277050323
-0.01549507015
-0.005801358897
-0.005618901776
-0.005144021835
-0.02956156911
0.001859534669
-0.01450125087
0.0007394465175
-0.008549202494
-0.02620316244
-0.001488898484
-0.006639303767
-0.008213400022
8.005410988e-05
-0.02681483087
-0.005770253125
-0.006094076722
-0.003157640579
-0.003785979782
-0.02901218059
-0.001998371058
-0.01035094636
-0.0005925150151
-0.002840009436
-0.02595646239
-0.005366231784
-0.005569641047
-0.004440515863
-0.002142439021
-0.02256727257
-0.003999434775
-0.004194807093
-0.008566091316
0.002194213884
-0.03081411204
-0.0062782042
-0.002782033947
-0.008637845908
-0.002730198969
-0.008374476208
-0.003656821318
-0.006150963629
-0.005693087657
-0.005193099009
-0.008230876317
-0.0060513646
-0.00574115649
-0.004704259301
-0.005772791142
-0.01058893503
-0.007639927062
-0.006041384314
-0.004184055822
-0.005135229372
-0.009187476322
-0.003812465799
-0.006624898026
-0.004539698604
-0.004751333623
-0.005278300863
-0.003750409757
-0.004878704386
-0.004342849961
-0.004668711049
-0.002375618636
1.977596077
-0.8792630414
-1.497024842
-0.7372958886
-0.2578472829
0.05064161062
0.4103000732
0.1350748401
0.1416331016
-0.09813089672
-0.2241235479
-0.129591689
-0.3018571501
0.05862672996
-0.01256289137
0.4263246246
0.06247340304
0.2134331472
-1.611839893
-5.22612933
-8.766408541
-11.22194179
-13.07209174
-13.98178152
-14.32644301
-13.78903666
-12.61530556
-11.32863181
-9.793551118
-8.009260241
-6.346213838
-5.326625423
-4.008616737
-2.93629131
-2.053701378
-1.597558475
-1.096775663
-0.7747296027
-0.1763772098
-0.1051026827
-0.06621888116
-0.1956147371
-0.1179554202
-0.1779969694
0.05938987594
0.002154119996
0.01437015685
-0.06273434386
-0.05953367496
-0.07252498617
-0.05639691143
-0.03670543809
0.04864959168
-0.07657576063
-0.0232909953
-0.01664283452
0.07971817604
0.07479307738
0.07171483236
0.06446433536
0.08424491376
0.06973558025
0.05848695178
0.08143435769
0.003267789744
0.004964894124
0.01294322701
0.006184104775
-0.007460013675
-0.01217255181
-1.074009528
0.1270507433
-0.01985430029
0.1335067135
0.3688649814
0.005090472635
0.213213589
-0.1923780259
-0.228268373
-0.6697809639
-0.2619638397
-0.05439746043
-0.07561294582
-0.008948513398
-0.2181142534
0.08151938635
0.117502468
-0.008806834407
-0.255834657
-0.1596326037
-0.02485052419
-0.01281955213
0.007478317697
0.08135539347
0.1299459628
-0.09893089784
0.151364492
0.1729602208
-0.09922532013
-0.2572997251
0.3203893212
0.246651497
0.1849367844
-0.0734280636
-0.3357836512
0.1747553137
0.1851400427
0.1051965691
0.02600483113
-0.1065297456
0.06624353439
0.09973256439
0.04805901173
0.02880437439
-0.04553985895
-0.04921576028
-0.08080107397
-0.06381404306
-0.02642608897
0.01577489683
-0.1945265539
-0.0925156479
-0.06733728606
-0.04568712361
0.02425887823
-0.1475948585
-0.1052666206
-0.09714686443
-0.0699756196
-0.003583239511
-0.06985562302
-0.1481185423
-0.1417999506
-0.05192683386
-0.02460903942
-0.1389155006
-0.07296310994
-0.02844550233
-0.02941985323
-0.03141709339
-0.07517147586
-0.01775656295
0.03927214595
-0.06051596846
-0.09450136838
0.1021420812
-0.08864592088
-0.1791863581
-0.09565145602
-0.07477730252
0.2214113756
0.2959257294
0.3914088032
0.4202943548
0.2025558005
0.255457945
0.2884110731
0.3360560466
0.3833504809
0.1635636942
-2.486414763
-5.026534789
-8.705269173
-10.80397051
-4.625032896
-6.84818388
-10.44441171
-15.58473397
-21.62941032
-26.25250419
-10.29659043
-13.5118473
-17.62080017
-22.66079554
-27.6966012
-12.62530397
-15.09333761
-17.97002632
-21.04344857
-23.76925062
-14.17333898
-15.86954407
-17.53324405
-19.06001137
-20.11295847
-14.84959942
-15.82271367
-16.67249061
-17.22992401
-17.34661788
-14.76747854
-15.22088883
-15.5083496
-15.4919368
-15.12947678
-14.00661758
-14.10693662
-14.02368009
-13.69541758
-13.10844444
-12.82718105
-12.71695626
-12.44671508
-11.97749823
-11.32234124
-11.29884206
-11.09767342
-10.73611761
-10.227005
-9.577905103
-9.613662962
-9.378943946
-9.0001247
-8.502797905
-7.912865212
-7.932403485
-7.696584486
-7.339471636
-6.902727279
-6.390284525
-6.367965237
-6.149038827
-5.850810832
-5.486115118
-5.070661368
-4.952549088
-4.811316047
-4.573376471
-4.286483431
-3.968061807
-3.803184001
-3.680483666
-3.517341279
-3.289332426
-3.064582717
-2.845437158
-2.76917535
-2.630637294
-2.490263954
-2.310210079
-2.077660398
-2.013178052
-1.930711898
-1.82117037
-1.703826663
-1.445607923
-1.424094963
-1.360158302
-1.296013053
-1.209553212
-0.9760039858
-0.9611155964
-0.9326520894
-0.8774826626
-0.8336296894
-0.630283143
-0.6260819439
-0.6089209184
-0.5779901041
-0.5464804482
-0.4189361119
-0.3937816264
-0.3809466605
-0.3675512973
-0.344802952
-0.2525370593
-0.2391887223
-0.2320384648
-0.2249360703
-0.2121763631
-0.149589002
-0.1409623794
-0.1414837942
-0.1311137437
-0.1299043745
-0.07608345905
-0.08404860465
-0.0829868232
-0.08050860197
-0.07602008157
-0.04564227043
-0.05176225418
-0.05040624907
-0.04879377397
-0.04769309419
-0.02046449461
-0.03428174722
-0.03365932389
-0.02947428621
-0.0331750069
-0.03022388396
-0.02406647397
-0.02284714051
-0.02254384335
-0.02252310648
-0.02049021629
-0.01923584732
-0.01653938009
-0.02006611213
-0.01583494523
-0.01813852296
-0.01692496132
-0.01363931658
-0.01701581124
-0.0139023267
-0.01009025243
-0.01588889633
-0.01210678456
-0.01600239347
-0.01200055973
-0.009583015509
-0.01411252893
-0.01277843725
-0.0130300039
-0.01289655147
-0.008082473718
-0.01194436503
-0.01417515136
-0.01060578153
-0.0131869206
-0.0080153267
-0.01302980034
-0.01171061362
-0.01177078754
-0.01160204508
-0.009650028871
-0.01199763806
-0.01103406387
-0.01186665415
-0.01057658906
-0.01575863895
-0.01162781434
-0.009664540873
-0.01199411608
-0.009675894592
-0.005016971239
-0.01087534138
-0.009962676978
-0.01044904994
-0.009669938671
-0.009009661405
-0.009916280027
-0.009293396591
-0.009820377967
-0.008999892985
-0.00801822555
-0.009392068925
-0.008250500503
-0.009242353625
-0.008241082557
-0.01546503815
-0.007437176124
-0.008391630027
-0.007710250557
-0.007692953894
-0.01434692353
-0.006783555829
-0.007011515413
-0.007301160375
-0.006759172165
-0.01300932565
-0.005892724922
-0.006790233505
-0.005710301702
-0.00662526046
-0.01105551667
-0.00573237768
-0.005683667555
-0.005292706014
-0.005784736672
-0.01237558558
-0.005409171286
-0.004768193043
-0.005167864284
-0.005154550454
-0.0112280662
-0.004514982769
-0.004760850187
-0.00523157671
-0.004520739468
-0.01030259295
-0.004687861554
-0.004550281351
-0.005450714331
-0.004337113904
-0.01199471987
-0.004803801842
-0.005115931187
-0.004922598712
-0.005047092861
-0.006064398549
-0.005231370951
-0.005317750003
-0.005263781417
-0.005223191514
-0.006434619623
-0.00556522825
-0.005456211194
-0.005472835995
-0.005456435236
-0.007033329711
-0.005485177707
-0.005876168634
-0.005203567165
-0.005752343614
-0.006458077742
-0.005383874604
-0.005622836066
-0.005344163246
-0.005495669912
-0.004938275077
-0.005138680717
-0.005454077246
-0.005062569564
-0.005256151373
-0.003888540156
-0.004486359491
-0.00451097498
-0.004556981779
-0.004556956551
0.3204139205
0.1362136105
0.0862129539
0.002926095321
0.009308212374
-0.01125339425
-0.006037403548
-0.005440728763
-0.008021353355
-0.006341076603
-0.009495867104
-0.004592349595
-0.005277826873
-0.00809826133
-0.007399622089
-0.007855690344
-0.009074791287
-0.009539382973
-0.009882340528
-0.01009947687
-0.01023167965
-0.01039213977
-0.01043741768
-0.01047790111
-0.01042673561
-0.01018768151
-0.009876016863
-0.009508332356
-0.009032561787
-0.008439052336
-0.007723313012
-0.006887344458
-0.005932117876
-0.004878283951
-0.003752288942
-0.002571163768
-0.001360438363
-9.559105586e-05
0.001192718755
0.002409309282
0.003566845324
0.004672116863
0.005651027685
0.006469864257
0.00711857367
0.007567089324
0.00781163235
0.007808032359
0.007567297478
0.007128835715
0.006497327214
0.005684222143
0.004727080071
0.00366223931
0.002545889784
0.001427654074
0.0004099209199
-0.000519748531
-0.00138035369
-0.001860904256
-0.4591438133
-0.224315568
0.01388232285
-0.01716692974
0.01249523294
-0.01473927792
0.006076583188
-0.005784218948
-0.005683913459
-0.002597094889
-0.003700817586
-0.002649593727
-0.005121704826
-0.005317554013
-0.00420250669
-0.0061552077
-0.007049569998
-0.007062737686
-0.007495698437
-0.008074501366
-0.008340837059
-0.008376393853
-0.008550096337
-0.008708651761
-0.008704207992
-0.008613802644
-0.008439909337
-0.008159070303
-0.00775340673
-0.007238005492
-0.006617474183
-0.005893528143
-0.005067946348
-0.004148175724
-0.003141803668
-0.00205788058
-0.0009110731656
0.0002699465486
0.001461870031
0.002643800444
0.003778854683
0.004834093115
0.00578071967
0.006602448081
0.007254004766
0.007725095815
0.007986978126
0.00803328583
0.007862971731
0.007474337826
0.006881588592
0.006116919145
0.005205938227
0.004200079454
0.003137863864
0.002060785945
0.001053836048
0.0001795915411
-0.0005813556455
-0.001116823953
0.2066377711
-0.5549923277
-0.1083029347
-0.01282884501
0.007408298208
0.00393912185
-0.005546968322
0.005995542012
0.0003563329808
-0.0002646888466
0.002173056029
-0.001129547996
-0.001609589337
-0.001510512396
-0.002007115546
-0.003322349416
-0.003366037858
-0.003859577296
-0.004740870195
-0.005139096403
-0.005381974284
-0.005747405202
-0.006077775111
-0.006317220529
-0.006499905151
-0.006596430285
-0.006610935446
-0.006517674613
-0.006319776344
-0.006019628566
-0.005614304801
-0.005102146727
-0.004483243429
-0.003762111618
-0.002946186582
-0.002044135955
-0.001072349449
-4.795801026e-05
0.001005500157
0.002064325503
0.003100411191
0.004086557136
0.004990191311
0.005785911213
0.006438247445
0.006925961415
0.00723347024
0.007340624956
0.007248596065
0.006950807975
0.006456948794
0.005793184875
0.004987246699
0.004079815835
0.003096131213
0.002112983099
0.001186980852
0.0003871636643
-0.0003035090118
-0.0009076841743
0.5881694853
-0.4240156673
-0.3855927961
-0.0503759222
-0.002221709468
0.002502163397
0.001684444219
0.00827147866
0.004864398724
0.005227042369
0.003313173828
0.002605058084
0.003020801902
0.002207183125
0.001946334837
0.001240397683
0.000628174232
-5.934324562e-05
-0.0006963369288
-0.001308811651
-0.001853243322
-0.002352610862
-0.002853413713
-0.003282867166
-0.00368872899
-0.004030552997
-0.004269200588
-0.00444315514
-0.004538474017
-0.004533646502
-0.004423444518
-0.004211118275
-0.003891953872
-0.003459177462
-0.002926971569
-0.00229562427
-0.001581415706
-0.0007879199014
5.707610279e-05
0.0009391947721
0.001830764581
0.002705233175
0.003535236742
0.004287272867
0.00493481845
0.005449292813
0.005811890397
0.006002190584
0.006014140604
0.005836358752
0.005481710327
0.004972916706
0.004323666544
0.003548203374
0.002726650423
0.001863529609
0.001029455763
0.0003103143613
-0.000109535493
-0.0008541546076
0.09374215532
-0.6610704323
-0.7532809908
-0.1467177152
-0.01275745093
0.006077431009
0.01143844745
0.0098673205
0.009511580663
0.009315025666
0.007034847871
0.007047723332
0.008443422674
0.007416834585
0.006592713417
0.006131771918
0.00547528736
0.004746874408
0.004019931018
0.003305608052
0.002641004268
0.001914637848
0.001152012177
0.0004992482852
-0.0001299355519
-0.0007414552046
-0.001308969422
-0.001815730621
-0.002253287806
-0.002607426559
-0.002865601267
-0.003037336562
-0.003088642473
-0.003032144956
-0.002850523806
-0.002571630907
-0.002177292357
-0.001698965653
-0.001121475867
-0.0004790241166
0.0002150584185
0.0009328869977
0.001658180894
0.002352155814
0.002980464484
0.003526908613
0.00395559634
0.004248991189
0.004385391629
0.004368868835
0.004199924974
0.003889018391
0.003399568049
0.002857778994
0.002214111888
0.001474001169
0.0009267398669
0.000308681806
-0.0002070176113
-0.0008075239619
-0.4781270094
-0.9874477214
-1.257705912
-0.6144537132
-0.09503703969
0.0001655408044
0.005273874575
0.01160465339
0.01541137608
0.01400346733
0.01384219945
0.01256872097
0.01318736134
0.01243679597
0.01207858916
0.01206668655
0.0110600172
0.01005880152
0.009547673002
0.008737161169
0.007830037604
0.006912752576
0.005996702442
0.005085350997
0.004123005824
0.003222924402
0.002309423901
0.001414279115
0.0006017575857
-0.0001419165331
-0.0008343890278
-0.001429952689
-0.00189970568
-0.002286654014
-0.002536023143
-0.002683229666
-0.00264745324
-0.002540372283
-0.002299458573
-0.001939858093
-0.001486357501
-0.0009624602913
-0.0003801919864
0.0002298899096
0.0008264970513
0.001397907745
0.0018985156
0.00228828696
0.002588625728
0.002751748265
0.002771320155
0.002641378113
0.002461218272
0.002155361556
0.001638683384
0.001294201953
0.0008227836129
0.0004655567552
-0.0001283918972
-0.000544171548
-0.3718038819
-0.5114724989
-0.7526022532
-0.356074566
-0.4719871563
-0.07797281229
0.005785015679
0.01675770697
0.01717342003
0.01325086054
0.0207008219
0.01941029333
0.01837099644
0.01792700716
0.01668329184
0.01750298736
0.01703427209
0.01548541803
0.01518682815
0.01429816769
0.01355175325
0.01243370978
0.01129963753
0.01015316545
0.008925853659
0.007616960937
0.006428921986
0.005176520212
0.003971239818
0.002803359806
0.001619617272
0.0006058446984
-0.0003090221756
-0.001167511208
-0.001858447192
-0.002460585953
-0.002945966692
-0.003157374166
-0.003283548059
-0.003308944336
-0.003125962205
-0.002781441899
-0.002444600467
-0.001939572546
-0.001388305023
-0.0008053238405
-0.0002574829999
0.0002980182014
0.0007392752493
0.001077211621
0.001330025483
0.001472719105
0.001473025565
0.001651821605
0.00140326438
0.00110012685
0.000975981935
0.0005213174801
7.880728692e-05
-0.000230619839
-0.2982328132
-0.3105101111
-0.1553399732
0.660937339
-0.9001574439
-0.5459926372
-0.05851012201
0.006406670481
0.02859397292
0.0143755258
0.01957618588
0.02323183791
0.02370806587
0.02446314015
0.0215121491
0.0207697292
0.02240108414
0.02144291761
0.02028740975
0.01892473996
0.01859024121
0.01708612172
0.0173681222
0.01556490685
0.01404712889
0.0124255848
0.01069272879
0.009260521439
0.007768899291
0.005991778543
0.004429505696
0.003200313343
0.001670913233
0.0002765790264
-0.0008392403707
-0.001788349914
-0.002966364318
-0.003556573023
-0.004056695491
-0.004464788193
-0.004638591596
-0.004604124052
-0.004344352057
-0.004173583627
-0.003571282504
-0.002940794648
-0.002536118057
-0.001642488252
-0.00115461716
-0.0004075215419
3.420167966e-05
0.0004308454339
0.0007534383573
0.0009864159709
0.001067394364
0.00110049714
0.000955881938
0.0007431865512
0.0005053377676
0.0002375366648
-0.1615444938
-0.1654773573
-0.3539914353
-0.4785965885
-1.635953135
-2.603636193
-0.3680686958
-0.03186691974
0.02753506607
0.01099979139
0.0216824764
0.0301463692
0.02037250801
0.02494880944
0.03022974987
0.02474723074
0.02393966856
0.02616473587
0.02605086565
0.02418592608
0.02300147218
0.02267341424
0.02146781419
0.02032371777
0.01875408285
0.01704566058
0.01524861754
0.01319699941
0.01164682315
0.009825202512
0.007614454471
0.0056951086
0.004107822512
0.002249092136
0.0004084231296
-0.001071209308
-0.002577873136
-0.003437816188
-0.004563794518
-0.005671996298
-0.005936381326
-0.006232523047
-0.006289560388
-0.006084381947
-0.005680203173
-0.005091498583
-0.004395757411
-0.003591452667
-0.002808237395
-0.001977334675
-0.001248974208
-0.0005968089659
-1.75896217e-05
0.000447179501
0.0007817091768
0.0009888161579
0.001078934765
0.001076249671
0.0009657504883
0.0007624251766
0.01318222542
0.04020458898
-0.0962458761
-0.5145629985
-2.47443215
-7.336603725
-2.177498338
-0.1382492579
-0.02160836256
0.02365077437
0.01915611973
0.02292068541
0.02726297111
0.01996368048
0.02425947734
0.03058745499
0.03005612882
0.02810426952
0.02648337182
0.02792123717
0.0284945514
0.02681203756
0.02508248692
0.02421952302
0.02311710839
0.02149871014
0.01963815196
0.01760274448
0.01541774938
0.01308683366
0.01077818621
0.008515052616
0.006264366662
0.00403636048
0.001803853567
-0.0002595309183
-0.002096933824
-0.003555914172
-0.004972513563
-0.006076478393
-0.006899844506
-0.007438735168
-0.007698175746
-0.007688387267
-0.00741959211
-0.006896994967
-0.00617667007
-0.005317605094
-0.004372050688
-0.003394112652
-0.002444549409
-0.001544889578
-0.0007397239305
-4.725755967e-05
0.0005238803443
0.0009542092191
0.001251739358
0.001420346881
0.001427765028
0.001294801005
0.0357417689
0.06995861975
-0.02627721237
-0.6148259362
-2.96245943
-10.90417039
-6.410241896
-0.6463542076
-0.04726656431
-0.01826919514
0.0122907271
0.01706642048
0.02645988383
0.0192871802
0.01666602443
0.02772999585
0.02995783208
0.02950204682
0.02801721543
0.02852802941
0.03061368627
0.03046870266
0.0285484565
0.02731394946
0.02635535493
0.02501744428
0.02322502672
0.02113996765
0.01888032445
0.01645557167
0.01386093015
0.01116666725
0.008475277223
0.005840616221
0.003288926309
0.0008594252026
-0.001374828051
-0.003334662942
-0.005031624511
-0.006462886951
-0.007610121119
-0.008430465982
-0.008907708039
-0.009061258448
-0.008898877683
-0.008436035323
-0.007721926989
-0.006815648171
-0.005772865159
-0.004651878496
-0.003518441426
-0.002418286603
-0.001391247314
-0.0004757338164
0.00031236725
0.0009463361369
0.001420333804
0.001745398861
0.001877287422
0.001797038036
0.03529549125
0.0130833903
-0.128600075
-1.018473132
-4.023481397
-12.51040998
-13.55690974
-2.24768289
-0.2018815014
-0.05823165466
0.03083219181
0.01869586506
0.0007163047338
0.0137717575
0.02211912616
0.02080416069
0.02341461055
0.02355033789
0.02787946376
0.02816177984
0.03051069923
0.03036299654
0.02951622084
0.02907477366
0.02883887582
0.02789786763
0.02610591787
0.0239949005
0.02176441067
0.01927942126
0.01653361009
0.01364340884
0.01069179608
0.007740215581
0.004855906938
0.002089377612
-0.0005039143983
-0.00284593585
-0.004890657425
-0.006633521533
-0.008060555415
-0.009131680352
-0.009818433631
-0.01012884302
-0.01008058829
-0.009690661694
-0.008999964583
-0.00807012509
-0.006959245647
-0.00573002024
-0.004449677265
-0.003178370485
-0.00196261736
-0.000848763068
0.000127440202
0.0009382687151
0.001575615984
0.002036292396
0.002258332415
0.002237027932
-0.02774283183
-0.1532904792
-0.3597674855
-1.60003922
-5.183976434
-14.99657095
-18.97458402
-6.819132688
-0.4598237762
-0.1065492088
0.009713199007
0.005992988821
-0.004302562728
0.006483456359
0.01377046955
0.01313181909
0.0135094951
0.01950655404
0.02343492341
0.0263912888
0.02876244954
0.0279445082
0.02854012425
0.02968915867
0.03020662311
0.02946931144
0.02784703564
0.02597419869
0.02392648245
0.02151435014
0.01875327716
0.0157822574
0.0126871958
0.009527833948
0.006389723426
0.003353601894
0.0004740967602
-0.00218176094
-0.004534688253
-0.006550379094
-0.008222105334
-0.009519040606
-0.01040409565
-0.01087291118
-0.01094503451
-0.01063959697
-0.009990973431
-0.009060432946
-0.007909429544
-0.006603863115
-0.005214343777
-0.003808860116
-0.002443172982
-0.001170393923
-3.810746915e-05
0.0009195153964
0.001685404456
0.002249124224
0.002571516673
0.002577823752
-0.07745638093
-0.2465415685
-0.6411882446
-2.380600393
-7.594523165
-19.61558189
-25.516995
-11.44743275
-0.9997362297
-0.1969213905
-0.05463710655
-0.0174172518
-0.002192124193
-0.0002165679592
-0.005541562297
-0.002077240939
0.00454172407
0.01238455316
0.02041890565
0.01731650123
0.02200586071
0.02586729846
0.02763338093
0.0286756875
0.02931460949
0.02919541308
0.02844105457
0.02721029768
0.02542975099
0.02311723337
0.02042227544
0.01747772581
0.01435128955
0.01109478075
0.007796298801
0.004562613677
0.001471248736
-0.001416506299
-0.004018125689
-0.006268006202
-0.008148527307
-0.009639156707
-0.01070147718
-0.01131897663
-0.01150831669
-0.01129040596
-0.01069590306
-0.009784377304
-0.008619303397
-0.007268813023
-0.00580713086
-0.004308537708
-0.002834811646
-0.001445473482
-0.0001961772545
0.0008737501644
0.00174046669
0.00238534205
0.002766270031
0.002802538403
-0.1406041487
-0.4692322718
-1.442563609
-4.253205223
-12.93171037
-28.21668715
-32.01551223
-16.20888758
-2.06595619
-0.2893611131
-0.1070510915
-0.05205469025
-0.01827461174
-0.01475820546
-0.01841771417
-0.01497019861
-0.007167768688
-4.869994812e-05
0.009881299163
0.01506484247
0.01867047013
0.02105185208
0.02345547128
0.02590216932
0.02761060806
0.02834645582
0.02828802507
0.02750864236
0.02603698044
0.02399366391
0.02152068675
0.01870875572
0.0156268061
0.01235135509
0.008980253744
0.005630149765
0.002399142575
-0.0006466704678
-0.003430361917
-0.005864684098
-0.007912227883
-0.009557867601
-0.01076523785
-0.0115107719
-0.01180500219
-0.01166996476
-0.01113433382
-0.01025562943
-0.009098284824
-0.00773201889
-0.006234325115
-0.004681697466
-0.003142451707
-0.001679169466
-0.0003530934768
0.0007882776662
0.001717917465
0.0024198843
0.002839974843
0.002890719668
-0.3499774713
-1.352978656
-3.571415942
-9.170545879
-23.76143471
-40.71379622
-36.24854747
-17.55907102
-3.280723309
-0.5074256382
-0.1113743952
-0.0771292496
-0.06029740677
-0.03934553176
-0.02549297333
-0.02050692253
-0.01539607915
-0.0113816416
-0.001327999772
0.00711675535
0.01253296184
0.01637716021
0.01988144751
0.02297449011
0.02528422588
0.02671029563
0.0272905528
0.02704209884
0.0260163341
0.02433461501
0.02211902063
0.01946718652
0.01647642653
0.01324608373
0.009874151381
0.006476016166
0.003167142741
2.67988477e-05
-0.002868829823
-0.005428227004
-0.007595046362
-0.009350683119
-0.010663709
-0.01150656665
-0.01188451219
-0.01181980634
-0.01134015271
-0.01050141354
-0.009368388471
-0.008011457948
-0.006509207977
-0.004940131869
-0.003374425872
-0.001879459643
-0.0005193761968
0.0006543363818
0.001614675474
0.002344043228
0.002777633625
0.002832819641
-0.9323707087
-3.45852583
-8.200317858
-22.27619878
-41.90075139
-50.1034266
-33.67868627
-14.2769179
-4.437636531
-0.7982037988
-0.1677330806
-0.09144569342
-0.07438134667
-0.06032459675
-0.04812946253
-0.03336171664
-0.0241921446
-0.01459884983
-0.006238434028
0.0003974263733
0.006135689719
0.01149289885
0.01629461805
0.02018050468
0.02305015244
0.0249747132
0.02603161753
0.02623880653
0.02561887751
0.02425650231
0.02227209997
0.0197861102
0.01691181263
0.01375586162
0.01042071591
0.007025379967
0.003694255922
0.0005190719367
-0.002425863604
-0.005047983234
-0.007279055328
-0.009095275083
-0.01046858555
-0.01137036615
-0.01180337807
-0.01178923459
-0.0113558654
-0.01055785286
-0.009458975241
-0.008130476187
-0.006650740795
-0.005097855096
-0.003543162695
-0.002057395122
-0.0007041722786
0.0004676882489
0.001427882196
0.002148498446
0.002579156744
0.002624159396
-2.928050051
-8.234958846
-17.76491508
-40.53387446
-52.86836888
-43.09384327
-23.45140704
-9.561264139
-3.107545726
-0.7735885298
-0.1834270466