/*--------------------------------*- C++ -*----------------------------------*\
  =========                 |
  \\      /  F ield         | OpenFOAM: The Open Source CFD Toolbox
   \\    /   O peration     | Website:  https://openfoam.org
    \\  /    A nd           | Version:  10
     \\/     M anipulation  |
\*---------------------------------------------------------------------------*/
FoamFile
{
    format      ascii;
    class       volScalarField;
    location    "0.02499901733";
    object      ddt0(rho,C2H6);
}
// * * * * * * * * * * * * * * * * * * * * * * * * * * * * * * * * * * * * * //

dimensions      [1 -3 -1 0 0 0 0];

internalField   nonuniform List<scalar> 
5170
(
-6.283349286e-08
-6.233664971e-08
-6.244114217e-08
-6.120181821e-08
-1.217411521e-09
-7.720936111e-08
-7.737296828e-08
-7.760471214e-08
-7.746827489e-08
-6.398500195e-08
-7.956754491e-08
-7.989073607e-08
-8.020156209e-08
-8.067107187e-08
-7.916090672e-08
-7.952156683e-08
-7.992449061e-08
-8.035294828e-08
-8.094503085e-08
-8.169508326e-08
-7.844359972e-08
-7.895519148e-08
-7.961472672e-08
-8.01035383e-08
-8.148532392e-08
-7.663401921e-08
-7.704062161e-08
-7.768374255e-08
-7.883476628e-08
-8.019093967e-08
-7.462196683e-08
-7.506799914e-08
-7.552388081e-08
-7.692567148e-08
-7.829259027e-08
-7.269883621e-08
-7.331915521e-08
-7.41103422e-08
-7.449424656e-08
-7.606403779e-08
-7.09187826e-08
-7.146561319e-08
-7.222794392e-08
-7.253331256e-08
-7.3912095e-08
-6.964251906e-08
-7.001037975e-08
-6.971042077e-08
-7.106668759e-08
-7.230819401e-08
-6.821973309e-08
-6.877535378e-08
-6.868860561e-08
-6.95107677e-08
-7.077526111e-08
-6.675519841e-08
-6.750424435e-08
-6.872922337e-08
-6.808872692e-08
-6.921907421e-08
-6.602772294e-08
-6.654139804e-08
-6.795851965e-08
-6.728074363e-08
-6.819105652e-08
-6.563554738e-08
-6.595912917e-08
-6.659900036e-08
-6.676416976e-08
-6.746046198e-08
-6.517018689e-08
-6.54513324e-08
-6.548974235e-08
-6.617953964e-08
-6.679370192e-08
-6.459283994e-08
-6.492757015e-08
-6.483093366e-08
-6.531614465e-08
-6.620939435e-08
-6.38657476e-08
-6.438279863e-08
-6.442993925e-08
-6.437482962e-08
-6.551640233e-08
-6.324651385e-08
-6.363484775e-08
-6.402687462e-08
-6.370157738e-08
-6.458686984e-08
-6.263954322e-08
-6.286071003e-08
-6.393870951e-08
-6.315234008e-08
-6.449400093e-08
-6.161198553e-08
-5.759181612e-08
-5.792338518e-08
-2.315758496e-07
-4.541254416e-07
-1.861195741e-22
-1.926413628e-22
-1.824428542e-22
-1.954618851e-22
-2.435998081e-22
-1.958046202e-22
-1.243667327e-22
-1.274619828e-22
-1.214395819e-22
-1.107917156e-23
-1.330683086e-22
-3.320763911e-23
-1.064520701e-23
-3.074208846e-23
5.234793658e-23
2.389861435e-23
9.397440819e-24
-3.724787493e-23
-1.70879049e-21
9.055855722e-21
1.012222712e-20
-4.54456458e-21
-9.300905439e-20
-1.078974806e-19
4.885585971e-20
-7.286854051e-21
-3.416942785e-18
-1.118087229e-18
-1.028100977e-17
-8.247218333e-17
-2.850635584e-16
-7.364744869e-17
-1.830157291e-16
-2.14146481e-15
-2.660410686e-16
-1.566661365e-16
-1.996376057e-15
-4.956569053e-16
-2.087995818e-15
-1.711685016e-15
-2.557461711e-15
-1.551482604e-15
-8.107231684e-17
-1.430410097e-15
-2.357721935e-15
-2.490542576e-15
-1.93459637e-15
-1.278826621e-15
6.635841787e-15
1.545406314e-15
7.453509799e-17
7.019988765e-15
6.846957387e-15
7.033298623e-15
-1.221065149e-15
-6.29564891e-14
-1.353823592e-14
-2.080941962e-14
2.02246549e-15
-2.999681969e-15
4.326961699e-11
5.11649447e-13
-8.297760075e-13
-1.367298279e-12
-3.564973747e-15
-3.166024003e-13
-5.751734201e-11
1.506688245e-10
7.602726469e-11
-8.508489268e-11
-2.480000369e-09
-1.309670776e-11
-2.551922963e-10
-2.420849654e-09
-2.814066337e-10
-1.167846539e-10
2.875372285e-09
1.105063137e-09
1.083165881e-09
-5.761685468e-10
-3.639302357e-11
4.965851942e-09
-2.57201618e-08
2.918312581e-08
4.335613331e-10
7.521210001e-08
-6.121134121e-09
2.134439463e-08
1.078435188e-08
9.359593876e-11
4.719618705e-07
2.810568048e-06
3.954967177e-07
7.861655234e-08
-1.847313418e-09
-1.142945815e-05
-7.788423262e-07
-1.265440391e-06
-4.078329936e-08
1.316768077e-07
-3.238110581e-08
-5.963591849e-08
-1.311241238e-06
-8.503810222e-05
-0.000928632055
-2.86124297e-07
2.131191698e-06
1.751223779e-05
-0.0001163875112
0.001060749367
-5.225114665e-07
-1.812273461e-07
-2.569330779e-05
0.0003245697179
0.002582792592
1.595212168e-07
2.34136038e-05
0.0002233993255
0.0006770876004
0.001665855533
-1.031596838e-05
-6.869746962e-05
-0.0002236744716
0.0002377944582
2.759732303e-05
-1.834282947e-05
-0.0001655139512
-0.000718874228
-0.0002117322826
3.02717429e-05
1.477411299e-05
5.060640969e-05
-0.0002651551988
-2.216072663e-05
-0.0007625406669
0.0001091836235
0.0004878351605
0.0005870999498
0.0003137619728
0.0001736125675
0.0002001662481
0.0006118649774
0.0009322891103
0.0006148448167
0.0001343502117
0.0002773607756
0.0007056100298
0.000938024889
0.0003595718102
-0.0003826086629
0.0002200326845
0.0002427094637
0.0003258335764
0.0002666431387
-0.0001493688023
-0.0002329984389
0.0001164093226
0.0003530619484
0.000605215053
0.0003071376732
0.00105355053
0.0005002421613
0.0001250044952
-2.00155816e-05
0.0004110788108
-0.0009746215389
-0.0004552813614
0.0001378255377
0.0003702461902
-0.0002274003906
-0.0004941912322
-0.0001984841823
-0.0001747516561
-0.0001990346236
-0.0007499099783
-0.001962702682
-0.001962584337
-0.001423245223
-0.0007551585949
-0.0006053298242
-0.00236285968
-0.002270679056
-0.002505193299
-0.003106267992
-0.003599274381
-0.002575276751
-0.00324281277
-0.004602413983
-0.007091692444
-0.009856224748
-0.004152506913
-0.005310041939
-0.007053060663
-0.00896494763
-0.009852060083
-0.004767350766
-0.00471304184
-0.004227769678
-0.002771844605
4.206370332e-05
-0.0005126640803
0.001798972177
0.005215691528
0.008901511332
0.01335165451
0.01185853835
0.0132944197
0.01570567989
0.01882999001
0.02203493344
0.02070164414
0.02117807874
0.02248900375
0.02429330726
0.02599293529
0.02499182031
0.02511502893
0.02560172003
0.02641992549
0.02673381404
0.0258565843
0.02588907065
0.0260220394
0.02611026588
0.02611596945
0.0247205778
0.02482065139
0.02474491483
0.02474194775
0.02457760145
0.02323666395
0.02311628275
0.02308201193
0.02299666637
0.02269341614
0.02124543805
0.02135456631
0.02120079712
0.02107756622
0.02086507687
0.0194473972
0.01950072968
0.01935288761
0.01919996918
0.01903725743
0.01773579187
0.01764925761
0.01756293461
0.01740703535
0.01718991073
0.0159017596
0.0158995222
0.01577776646
0.01564017784
0.01541369281
0.01414000901
0.01409617703
0.01401419588
0.01385709821
0.0137239345
0.01228293429
0.01227496262
0.01219609399
0.01205915851
0.01192105862
0.01039172797
0.01036965489
0.01029465421
0.01019110703
0.01006087655
0.008436338794
0.008405462797
0.008353361726
0.008271739367
0.008156992688
0.006510851163
0.006498927106
0.006460170076
0.006389712105
0.00631727673
0.004781146885
0.004766031183
0.004739980515
0.004694337048
0.004637798796
0.00332849283
0.003319913323
0.003302898234
0.003272054503
0.003235773289
0.002202576403
0.002201468577
0.002189550316
0.002170559236
0.002144393046
0.001396373633
0.001392486814
0.001385593703
0.001376312814
0.001359973246
0.0008486556078
0.0008466169792
0.0008430690513
0.0008375228634
0.0008290082109
0.0004993946442
0.0004988361956
0.0004970757745
0.0004938023821
0.0004901606436
0.0002887248288
0.0002882395931
0.0002873734089
0.0002858151878
0.0002838792335
0.0001662927814
0.0001661418469
0.0001658280354
0.0001648549435
0.000164235917
9.741391714e-05
9.746953519e-05
9.724024091e-05
9.682423518e-05
9.620657229e-05
5.925646387e-05
5.923691699e-05
5.909545976e-05
5.892072976e-05
5.863595777e-05
3.780697083e-05
3.779451845e-05
3.771649763e-05
3.76519372e-05
3.744743969e-05
2.545614345e-05
2.539218972e-05
2.533759493e-05
2.531315134e-05
2.527939137e-05
1.792169334e-05
1.786016582e-05
1.784838167e-05
1.781954231e-05
1.782200928e-05
1.306281784e-05
1.303809454e-05
1.302454756e-05
1.301938227e-05
1.303233762e-05
9.73217259e-06
9.749487685e-06
9.730262762e-06
9.708721129e-06
9.742840493e-06
7.423120426e-06
7.437546699e-06
7.445473364e-06
7.405310857e-06
7.440677036e-06
5.79352919e-06
5.710393411e-06
5.705784628e-06
5.747590301e-06
5.66408142e-06
4.399737636e-06
4.416053529e-06
4.407718327e-06
4.404475138e-06
4.449842631e-06
3.381309035e-06
3.332605419e-06
3.375102972e-06
3.338503576e-06
3.371330611e-06
2.474578725e-06
2.4642831e-06
2.46064583e-06
2.476989399e-06
2.473601214e-06
1.65690041e-06
1.682578018e-06
1.677938668e-06
1.692327608e-06
1.638871479e-06
9.38146923e-07
9.613114854e-07
9.680976267e-07
9.78287452e-07
9.403801262e-07
3.619967876e-07
3.340570717e-07
3.731910266e-07
3.682798767e-07
3.511643542e-07
-5.581592149e-08
-6.044782331e-08
-5.256400273e-08
-2.086762528e-08
-5.028693423e-08
-1.879924728e-07
-1.835054577e-07
-1.673024412e-07
-1.52222323e-07
-1.763792951e-07
3.805107557e-09
-6.461233179e-09
1.982085422e-08
2.98813157e-08
8.095066321e-09
4.057536559e-07
4.083196463e-07
4.167364401e-07
4.307315058e-07
4.102913158e-07
8.722826958e-07
8.732567389e-07
8.702342116e-07
8.935800233e-07
8.492454557e-07
1.24021213e-06
1.246110157e-06
1.239012329e-06
1.250397148e-06
1.245327537e-06
1.410598034e-06
1.409117278e-06
1.410968295e-06
1.432739401e-06
1.388221205e-06
1.379236672e-06
1.380074934e-06
1.382348405e-06
1.382333849e-06
1.37923908e-06
1.123044888e-06
1.125287469e-06
1.127594246e-06
1.125673524e-06
1.119515186e-06
8.322484737e-07
8.299489192e-07
8.345131583e-07
8.381054443e-07
8.38344163e-07
6.503901748e-07
6.504252522e-07
6.542008492e-07
6.587656649e-07
6.682951855e-07
0.00879428818
-0.006527338508
-0.008520686057
-0.004962325037
-2.079808447e-05
0.001226272
-0.0009632390491
0.0004424284537
7.627246892e-05
-0.0002628798638
-0.0006270041773
0.000255397912
-0.001017716769
0.000979047031
-0.001161458037
0.001169767816
-0.004750476285
-0.01233737952
-0.007952564981
0.00443425097
0.01517409361
0.02381412421
0.02706026154
0.0279527063
0.02634691276
0.02459081021
0.02289659885
0.02070182702
0.01871668909
0.01702246062
0.01532231086
0.01339249263
0.01171698431
0.009932248553
0.008080956422
0.006230310436
0.004582318286
0.00319756529
0.002138255378
0.001355224279
0.0008257402693
0.0004859115677
0.0002819244087
0.0001623354643
9.655198832e-05
5.862981762e-05
3.755310437e-05
2.499114154e-05
1.758190343e-05
1.276931017e-05
9.556333755e-06
7.336556109e-06
5.871981041e-06
4.238491922e-06
3.324369049e-06
2.459101543e-06
1.885587586e-06
1.163952133e-06
5.571148834e-07
1.39207281e-07
4.566276001e-08
1.880200083e-07
5.536104567e-07
1.029372754e-06
1.263993143e-06
1.413820233e-06
1.414551771e-06
1.13583193e-06
8.366411665e-07
6.646800107e-07
-0.01129951848
0.0003416719079
-8.01219024e-06
-2.717671492e-07
-8.056735793e-08
0.001013179831
0.006654908136
-0.0001690427698
1.522241571e-05
-1.072941475e-07
-0.0006923653078
0.014943239
-0.005265301519
-0.0003459767254
-2.895070365e-06
0.001796573466
0.001604351101
0.005423033019
0.000433650637
8.733223245e-06
-0.004752700251
0.0004966382801
-0.0002540396679
-0.0001446796784
-1.062906159e-05
0.01624194138
0.002122710889
0.007605879283
0.001129643603
4.856189558e-05
-0.00168616738
0.0004368325042
0.009095453456
0.001230096925
0.0002511173715
-0.007510224445
0.00152032866
-0.002494427581
0.0008035822288
0.0002156277462
-0.0009297795605
0.0003361367994
0.0002635205426
0.0006923025072
0.0001669949539
-0.001114094229
-0.0002701518084
-0.001077302862
-0.0007191662758
-4.937642001e-05
-0.001395964267
-0.0003792636691
-0.001729910918
-0.001519169937
-0.0001908139504
7.007451089e-05
-0.001049198102
-0.001428933762
-0.002479815239
-0.000360159054
-0.0009137029398
-0.005340260225
-0.003262408839
-0.002160939625
-9.663896487e-05
-0.0009140747669
-0.002516338171
0.00171357682
-0.000343559251
-0.0001300426614
-0.001667242917
-0.002756937277
-0.002786743554
-0.002072126966
-0.001273676554
-0.0007708550069
-0.003937959122
-0.002695136706
-0.002733839085
0.0006381222709
-0.003596159708
0.004468308724
4.102705912e-05
0.01450770928
0.01284716855
-0.01343721168
-0.008321360106
0.0008686004185
0.03037748299
0.02250060743
0.001112402482
0.02995348947
0.02217437634
-0.2048796471
-0.02643600266
0.01405895516
0.04639670814
0.09004909348
0.0952284836
0.02514388246
0.02125503128
0.03433947097
0.05193496177
0.06267402214
0.04757181963
0.02616859913
0.02980276723
0.03268555691
0.03143532344
0.02387551546
0.02823783108
0.02899024319
0.02829437541
0.0260235198
0.02226391294
0.02759427766
0.02757866272
0.02665407758
0.02494841328
0.02263936891
0.02621983209
0.0258963243
0.02501387591
0.02372260881
0.02203579417
0.02439512099
0.02395988919
0.02316477063
0.02207017393
0.02070276329
0.0224831086
0.02204261219
0.02130345472
0.02033424902
0.01915311515
0.02055577484
0.02008689497
0.01939726185
0.01850778674
0.01745703987
0.01866982633
0.01819089665
0.017531857
0.01671236877
0.01575670899
0.0168465773
0.01637835901
0.01575753122
0.01499700651
0.01413553593
0.01508566118
0.01464989548
0.01407240551
0.01338466442
0.01261351196
0.01338061905
0.01296722758
0.01245066158
0.01184099938
0.01116001458
0.01163276359
0.01128299483
0.0108278866
0.01030182468
0.009707141896
0.009832911511
0.00953976931
0.009162921766
0.008710118439
0.008209973706
0.007988170015
0.007761180058
0.007453981885
0.007087613567
0.006675758948
0.006192649967
0.006022882355
0.005789845886
0.005504642632
0.005183973112
0.00455980826
0.004444335638
0.004275849802
0.004068545167
0.00383068965
0.00318970465
0.003116105832
0.003002631095
0.00285930207
0.002693890557
0.002122765693
0.002080133546
0.002008214498
0.001914663241
0.00180580898
0.001350589455
0.001326876146
0.001283690916
0.001225997655
0.001157961189
0.0008255352959
0.0008132739651
0.0007885842402
0.0007548503751
0.0007143007066
0.0004890302174
0.0004829193339
0.0004695003282
0.0004505149372
0.0004274962124
0.0002839809651
0.0002811567623
0.0002741110137
0.000263829175
0.0002511761603
0.0001644310473
0.0001630915255
0.0001594620322
0.0001540410847
0.000147229011
9.661923884e-05
9.609039998e-05
9.422765853e-05
9.136286121e-05
8.775354975e-05
5.885709997e-05
5.858723703e-05
5.761890471e-05
5.607517095e-05
5.415513751e-05
3.759854938e-05
3.745584588e-05
3.693409226e-05
3.608128407e-05
3.502212188e-05
2.531033935e-05
2.520124966e-05
2.490960496e-05
2.441461495e-05
2.381124262e-05
1.782883781e-05
1.77621179e-05
1.758174698e-05
1.729351072e-05
1.692155179e-05
1.302594682e-05
1.298206965e-05
1.286138203e-05
1.269281706e-05
1.245063852e-05
9.734774542e-06
9.701271776e-06
9.633263537e-06
9.517268055e-06
9.365536625e-06
7.436690311e-06
7.420805281e-06
7.377004401e-06
7.297846842e-06
7.199084928e-06
5.718411546e-06
5.726380705e-06
5.701911503e-06
5.644820831e-06
5.581502931e-06
4.434384246e-06
4.42175088e-06
4.40662678e-06
4.372868447e-06
4.328881683e-06
3.373895872e-06
3.378779442e-06
3.373117454e-06
3.353770103e-06
3.328516601e-06
2.49535261e-06
2.505778873e-06
2.511471407e-06
2.504970329e-06
2.496965981e-06
1.70310685e-06
1.742758758e-06
1.756461713e-06
1.768762291e-06
1.776513559e-06
1.008347394e-06
1.058200585e-06
1.088336701e-06
1.116495477e-06
1.145946701e-06
4.221289523e-07
4.857562151e-07
5.297163289e-07
5.775539465e-07
6.228240402e-07
3.170456498e-08
9.604402285e-08
1.519453144e-07
2.11400671e-07
2.727686156e-07
-9.662038097e-08
-2.999909043e-08
3.021139481e-08
9.339146466e-08
1.61905484e-07
7.212848142e-08
1.292326769e-07
1.814014681e-07
2.394083145e-07
3.03978293e-07
4.548065572e-07
4.915272697e-07
5.277079519e-07
5.711019368e-07
6.239203602e-07
8.90179343e-07
9.173072602e-07
9.397147412e-07
9.688970063e-07
1.002738581e-06
1.252350945e-06
1.260450881e-06
1.273996875e-06
1.295773057e-06
1.280977396e-06
1.458304391e-06
1.470506491e-06
1.472461186e-06
1.476210344e-06
1.480819902e-06
1.392779947e-06
1.399557826e-06
1.390658328e-06
1.382668689e-06
1.37044611e-06
1.124356013e-06
1.12651501e-06
1.125517581e-06
1.121680249e-06
1.12316836e-06
8.456698224e-07
8.537050183e-07
8.599969674e-07
8.819040695e-07
8.998946745e-07
6.746063312e-07
6.895174213e-07
7.10040772e-07
7.357259052e-07
7.553906689e-07
-3.02022317e-08
-4.364637364e-07
-6.866496555e-08
-1.122198233e-08
-2.873872644e-09
-1.330933256e-09
-1.045517596e-09
-1.04492373e-09
-1.083923951e-09
-1.109448756e-09
-1.121666984e-09
-1.12335362e-09
-1.123020257e-09
-1.121973922e-09
-1.119775784e-09
-1.120679137e-09
-1.120191059e-09
-1.117935239e-09
-1.118239591e-09
-1.11839555e-09
-1.118363085e-09
-1.118308212e-09
-1.118265893e-09
-1.118348905e-09
-1.118559177e-09
-1.118754849e-09
-1.118961709e-09
-1.119191353e-09
-1.119413088e-09
-1.119608009e-09
-1.11978283e-09
-1.119937149e-09
-1.120072742e-09
-1.120173804e-09
-1.120246043e-09
-1.120305052e-09
-1.120347483e-09
-1.12035449e-09
-1.120340062e-09
-1.120335933e-09
-1.120333899e-09
-1.120321787e-09
-1.120334713e-09
-1.120344243e-09
-1.120384053e-09
-1.120459695e-09
-1.120581952e-09
-1.120753224e-09
-1.120970691e-09
-1.121217574e-09
-1.121505226e-09
-1.121831863e-09
-1.122176663e-09
-1.12256624e-09
-1.123162403e-09
-1.124868108e-09
-1.13096904e-09
-1.14852653e-09
-1.185414216e-09
-1.238315577e-09
-3.903530649e-07
-2.70850513e-06
-1.102679737e-07
-5.693749452e-09
-8.050505321e-10
-7.795334855e-10
-9.652684032e-10
-1.179259217e-09
-1.342899465e-09
-1.444584555e-09
-1.502914592e-09
-1.530102077e-09
-1.543322435e-09
-1.546925275e-09
-1.546498025e-09
-1.547931088e-09
-1.550350666e-09
-1.553855689e-09
-1.558579574e-09
-1.561294747e-09
-1.562234111e-09
-1.562400357e-09
-1.562649508e-09
-1.563159084e-09
-1.563520533e-09
-1.564038938e-09
-1.564476904e-09
-1.564833864e-09
-1.565065596e-09
-1.565262548e-09
-1.56542176e-09
-1.565594727e-09
-1.565693267e-09
-1.565620241e-09
-1.565491623e-09
-1.565485937e-09
-1.565344085e-09
-1.565212702e-09
-1.564927461e-09
-1.564830408e-09
-1.564692535e-09
-1.564692522e-09
-1.564976199e-09
-1.564963538e-09
-1.565177862e-09
-1.565641226e-09
-1.566312839e-09
-1.56701502e-09
-1.567872239e-09
-1.568689635e-09
-1.569820404e-09
-1.571113563e-09
-1.572336846e-09
-1.573693117e-09
-1.57562998e-09
-1.580471117e-09
-1.595988588e-09
-1.645653124e-09
-1.770467047e-09
-1.910563873e-09
-1.099648939e-06
-4.826992638e-06
-4.083092874e-07
-3.006445875e-08
-3.380497686e-09
2.860000477e-10
1.013589628e-09
1.046550383e-09
7.747642147e-10
4.66954903e-10
2.328417044e-10
8.429628506e-11
7.273860683e-12
-2.788927537e-11
-4.15019568e-11
-4.682190997e-11
-5.484132581e-11
-7.013850333e-11
-8.391022219e-11
-9.301137006e-11
-9.871278127e-11
-1.029749659e-10
-1.06806561e-10
-1.105285765e-10
-1.141801432e-10
-1.175871514e-10
-1.207110861e-10
-1.235934758e-10
-1.261667385e-10
-1.285113891e-10
-1.305341335e-10
-1.323275406e-10
-1.340215162e-10
-1.3549571e-10
-1.366237702e-10
-1.376641376e-10
-1.385600418e-10
-1.392973739e-10
-1.397237418e-10
-1.402474373e-10
-1.407316283e-10
-1.411328212e-10
-1.417780461e-10
-1.422178484e-10
-1.429813192e-10
-1.4389695e-10
-1.450799449e-10
-1.46285137e-10
-1.476135029e-10
-1.490698422e-10
-1.507545455e-10
-1.524986288e-10
-1.542914866e-10
-1.562002682e-10
-1.585441811e-10
-1.633988071e-10
-1.762034546e-10
-2.09478387e-10
-2.662157168e-10
-2.980599779e-10
-2.422837362e-06
-2.114644548e-05
-6.361495706e-06
-4.487663111e-07
-5.659643033e-08
-9.651955776e-09
2.485178666e-09
5.742440194e-09
5.757897742e-09
4.794306443e-09
3.804408596e-09
3.112244506e-09
2.7213412e-09
2.531042688e-09
2.450026501e-09
2.416868511e-09
2.392923149e-09
2.365369203e-09
2.343630149e-09
2.328671501e-09
2.317947028e-09
2.309120008e-09
2.300971196e-09
2.293259915e-09
2.285920968e-09
2.279157612e-09
2.273022526e-09
2.267433596e-09
2.262362097e-09
2.257789207e-09
2.253719415e-09
2.250131591e-09
2.246971764e-09
2.244217025e-09
2.241940645e-09
2.239976538e-09
2.238338269e-09
2.236999761e-09
2.235910396e-09
2.234960441e-09
2.23412995e-09
2.233481277e-09
2.232871051e-09
2.232342785e-09
2.231651039e-09
2.230986463e-09
2.230082693e-09
2.229176248e-09
2.228080026e-09
2.226943157e-09
2.225648679e-09
2.224331701e-09
2.222899045e-09
2.22148143e-09
2.21997783e-09
2.218455611e-09
2.217827273e-09
2.226846693e-09
2.277860554e-09
2.356868965e-09
-1.017310418e-06
-3.315904475e-05
-4.997451917e-05
-6.007688625e-06
-4.876862663e-07
-6.739816985e-08
2.715988874e-09
1.799612891e-08
1.81374556e-08
1.419875831e-08
1.02056836e-08
7.395669e-09
5.798649779e-09
5.018121975e-09
4.689236201e-09
4.566829108e-09
4.515507289e-09
4.482652132e-09
4.460990622e-09
4.447387558e-09
4.437835303e-09
4.429480127e-09
4.421363062e-09
4.413547002e-09
4.406177734e-09
4.399364609e-09
4.393103089e-09
4.387406628e-09
4.382224602e-09
4.377598013e-09
4.373489676e-09
4.369865634e-09
4.366765777e-09
4.364113267e-09
4.36193144e-09
4.360141519e-09
4.358720243e-09
4.357584475e-09
4.356706543e-09
4.356032447e-09
4.355536282e-09
4.355231705e-09
4.355044038e-09
4.354981762e-09
4.354901301e-09
4.354876833e-09
4.354690516e-09
4.354471846e-09
4.354080823e-09
4.353695302e-09
4.353188874e-09
4.352678799e-09
4.35196015e-09
4.351471569e-09
4.351193326e-09
4.352876072e-09
4.361516534e-09
4.394531065e-09
4.484597033e-09
4.585444283e-09
2.210869424e-06
-2.939127063e-05
-0.0001016672946
-4.536807624e-05
-2.830433399e-06
-9.67889048e-08
6.010778763e-08
6.827557409e-08
5.487746857e-08
3.759579797e-08
2.356261069e-08
1.451669645e-08
9.587444803e-09
7.260832491e-09
6.304096253e-09
5.960404261e-09
5.843806981e-09
5.799726604e-09
5.780424744e-09
5.771127372e-09
5.765424245e-09
5.760430764e-09
5.755206929e-09
5.74977917e-09
5.74444509e-09
5.739462791e-09
5.734799559e-09
5.730550759e-09
5.726700655e-09
5.72326112e-09
5.720178491e-09
5.717478739e-09
5.715188319e-09
5.713235166e-09
5.711661091e-09
5.710397475e-09
5.709512426e-09
5.708838101e-09
5.708418873e-09
5.70824262e-09
5.708270491e-09
5.708469414e-09
5.708801888e-09
5.709270122e-09
5.709772911e-09
5.710328436e-09
5.710821427e-09
5.711262121e-09
5.71159284e-09
5.711881294e-09
5.712027268e-09
5.712129016e-09
5.71214863e-09
5.712316844e-09
5.712735677e-09
5.715753961e-09
5.725692276e-09
5.757307414e-09
5.827794928e-09
5.897562998e-09
2.257669012e-05
-1.462621611e-05
-0.0001037447958
-0.0001542888537
-2.8038688e-05
-5.331226093e-07
1.876705587e-07
1.755903928e-07
1.312020393e-07
8.532765855e-08
5.000478639e-08
2.764414864e-08
1.558298724e-08
9.942284941e-09
7.633969776e-09
6.802842829e-09
6.534089139e-09
6.452385951e-09
6.428456899e-09
6.42173006e-09
6.420104977e-09
6.418597617e-09
6.416417022e-09
6.413641676e-09
6.410535063e-09
6.407366166e-09
6.404459813e-09
6.401646891e-09
6.399056036e-09
6.39668867e-09
6.394442837e-09
6.392525045e-09
6.390868647e-09
6.389396203e-09
6.388221185e-09
6.387248067e-09
6.386491644e-09
6.386112615e-09
6.385885946e-09
6.385831877e-09
6.386066971e-09
6.38652779e-09
6.387014036e-09
6.387731487e-09
6.388511581e-09
6.389361828e-09
6.390190674e-09
6.391073264e-09
6.391821151e-09
6.392496808e-09
6.393069614e-09
6.39359119e-09
6.393943388e-09
6.394692731e-09
6.395386356e-09
6.39775777e-09
6.405166071e-09
6.424806167e-09
6.463514828e-09
6.498982937e-09
3.1858564e-05
-5.283561267e-06
-8.221204731e-05
-0.0002031819827
-0.0001489185234
-3.863786594e-06
1.195789027e-06
5.34652736e-07
3.206707745e-07
1.944436809e-07
1.079456651e-07
5.508484329e-08
2.720773356e-08
1.443845438e-08
9.30674269e-09
7.482110026e-09
6.904730384e-09
6.739686175e-09
6.69529837e-09
6.685916078e-09
6.686760581e-09
6.68751325e-09
6.689384522e-09
6.687959077e-09
6.686316532e-09
6.684346458e-09
6.682199165e-09
6.680389816e-09
6.678559325e-09
6.676457835e-09
6.674636706e-09
6.673241822e-09
6.671551431e-09
6.670059139e-09
6.668915158e-09
6.667992798e-09
6.666839165e-09
6.666373399e-09
6.666026178e-09
6.665802376e-09
6.66586048e-09
6.666167229e-09
6.666737938e-09
6.667218785e-09
6.668190294e-09
6.669199149e-09
6.669949387e-09
6.671269762e-09
6.672122996e-09
6.67327258e-09
6.674057153e-09
6.67482154e-09
6.675507643e-09
6.676248367e-09
6.677100032e-09
6.678930361e-09
6.683095952e-09
6.693010661e-09
6.710465619e-09
6.725528513e-09
2.251075181e-05
-1.724615801e-06
-6.42037217e-05
-0.0002199815132
-0.0003389572151
-5.177493672e-05
8.042121415e-06
2.011329783e-06
8.449533889e-07
4.48165917e-07
2.322335713e-07
1.106139136e-07
4.947630419e-08
2.251211443e-08
1.200617375e-08
8.34495657e-09
7.199476178e-09
6.882183597e-09
6.799015069e-09
6.780520634e-09
6.779755264e-09
6.783034869e-09
6.784774073e-09
6.785495888e-09
6.784954311e-09
6.783829366e-09
6.782394399e-09
6.780555759e-09
6.779234266e-09
6.777571839e-09
6.775443915e-09
6.773637253e-09
6.772199299e-09
6.770450728e-09
6.768714779e-09
6.767388073e-09
6.766025827e-09
6.765395416e-09
6.764456485e-09
6.76353283e-09
6.763566301e-09
6.763558298e-09
6.763815629e-09
6.764365346e-09
6.765135185e-09
6.766109902e-09
6.767196853e-09
6.768401121e-09
6.769572229e-09
6.770797283e-09
6.771901247e-09
6.772933209e-09
6.773900283e-09
6.774832791e-09
6.775815426e-09
6.777222594e-09
6.779708834e-09
6.784523474e-09
6.792036542e-09
6.798170981e-09
8.378318328e-06
-8.156522266e-07
-3.461728668e-05
-0.0002368926867
-0.000494495407
-0.0002671730376
4.477336274e-05
8.025379257e-06
2.206410329e-06
9.978874097e-07
4.781211328e-07
2.139261439e-07
8.889263268e-08
3.615290624e-08
1.635165689e-08
9.653866935e-09
7.579673633e-09
6.998775955e-09
6.844504198e-09
6.812768698e-09
6.810712469e-09
6.812560387e-09
6.814526281e-09
6.816420344e-09
6.817122307e-09
6.81666035e-09
6.815590598e-09
6.814124714e-09
6.812369e-09
6.810365165e-09
6.808329103e-09
6.806301934e-09
6.804256522e-09
6.802210689e-09
6.800136237e-09
6.798236529e-09
6.796575345e-09
6.795330617e-09
6.794118505e-09
6.793249512e-09
6.792686738e-09
6.792434927e-09
6.792488858e-09
6.792837933e-09
6.793471079e-09
6.794382914e-09
6.795509549e-09
6.796785022e-09
6.798148282e-09
6.799541065e-09
6.800896423e-09
6.802203383e-09
6.803426218e-09
6.804597025e-09
6.805788136e-09
6.807173375e-09
6.809052937e-09
6.811918891e-09
6.815798767e-09
6.818686808e-09
-1.159041237e-05
-8.352486015e-07
-1.823580846e-05
-0.0002502575263
-0.0006279987133
-0.0007202983632
9.041284271e-05
3.833556542e-05
7.22000212e-06
2.521032127e-06
1.038715038e-06
4.187628288e-07
1.588805431e-07
5.844747766e-08
2.307046104e-08
1.160807818e-08
8.126209149e-09
7.151195892e-09
6.887624343e-09
6.825848289e-09
6.818704281e-09
6.821277684e-09
6.823388701e-09
6.825463444e-09
6.826877066e-09
6.827168409e-09
6.826506689e-09
6.825237163e-09
6.823589663e-09
6.821630258e-09
6.819390155e-09
6.816971532e-09
6.814506822e-09
6.812067182e-09
6.809689215e-09
6.807423362e-09
6.805355264e-09
6.803578897e-09
6.802081942e-09
6.800870079e-09
6.799964745e-09
6.799416199e-09
6.799243391e-09
6.799425088e-09
6.799953225e-09
6.800810511e-09
6.801941467e-09
6.803280062e-09
6.804763191e-09
6.806327399e-09
6.807901474e-09
6.809445069e-09
6.810933521e-09
6.812370942e-09
6.813814409e-09
6.815364612e-09
6.817187541e-09
6.819550709e-09
6.822346362e-09
6.824114324e-09
-7.193570616e-05
-1.306576298e-05
-1.944085339e-05
-0.0002760267287
-0.0008692290364
-0.001384437744
-1.340330009e-05
0.0001526313134
2.696910421e-05
6.675083943e-06
2.212758672e-06
7.782984159e-07
2.659885533e-07
8.933381588e-08
3.194741111e-08
1.419043795e-08
8.873542355e-09
7.364687833e-09
6.946118922e-09
6.838774946e-09
6.820266179e-09
6.820360048e-09
6.823594782e-09
6.827006733e-09
6.829724049e-09
6.830876871e-09
6.830537917e-09
6.829483661e-09
6.828052949e-09
6.826164325e-09
6.823859542e-09
6.821303344e-09
6.818611581e-09
6.815868931e-09
6.813161506e-09
6.810554223e-09
6.808114714e-09
6.80593578e-09
6.804072247e-09
6.802531685e-09
6.801331565e-09
6.800519067e-09
6.800127626e-09
6.800148983e-09
6.800563828e-09
6.801353205e-09
6.802471362e-09
6.80384939e-09
6.805422061e-09
6.807121324e-09
6.808875984e-09
6.810631071e-09
6.812357829e-09
6.814052537e-09
6.81574935e-09
6.817526441e-09
6.81950683e-09
6.821857084e-09
6.824349318e-09
6.825702279e-09
-0.0001376458264
-2.78131985e-05
-2.388510552e-05
-0.0002485640662
-0.001231582516
-0.002327885831
-0.0006671615307
0.000584681661
6.016689716e-05
1.669941661e-05
4.431902407e-06
1.304473717e-06
3.947970693e-07
1.222840536e-07
4.117068494e-08
1.70326958e-08
9.76981122e-09
7.648811857e-09
7.02541384e-09
6.857098009e-09
6.820953488e-09
6.815896894e-09
6.820104118e-09
6.825595853e-09
6.829613523e-09
6.831413866e-09
6.831611464e-09
6.831097167e-09
6.830079607e-09
6.828429841e-09
6.82622733e-09
6.823673145e-09
6.82089367e-09
6.817976894e-09
6.81503312e-09
6.812163862e-09
6.809437656e-09
6.806935824e-09
6.804752196e-09
6.802928714e-09
6.801475187e-09
6.800428527e-09
6.799832328e-09
6.799692634e-09
6.799988053e-09
6.800697607e-09
6.801783187e-09
6.803176545e-09
6.804809266e-09
6.806610005e-09
6.808505168e-09
6.810433797e-09
6.812360442e-09
6.814276944e-09
6.816204231e-09
6.81820437e-09
6.820371305e-09
6.822812164e-09
6.825232034e-09
6.826329994e-09
-0.0001352738343
-4.100956099e-05
-2.497918437e-05
-0.000180216835
-0.001844016001
-0.00377695092
-0.001877262576
0.0011381197
0.000216121753
4.1928921e-05
8.791616332e-06
2.105583784e-06
5.508542311e-07
1.567042122e-07
5.059140774e-08
2.011743963e-08
1.082098633e-08
7.998943991e-09
7.133015267e-09
6.876384439e-09
6.818495578e-09
6.812164153e-09
6.816361785e-09
6.821815168e-09
6.826369369e-09
6.829291798e-09
6.830843127e-09
6.831358989e-09
6.830880907e-09
6.829526145e-09
6.827538747e-09
6.82512383e-09
6.822396246e-09
6.819440738e-09
6.816374867e-09
6.813332262e-09
6.810409537e-09
6.807682851e-09
6.805250855e-09
6.803191835e-09
6.801528634e-09
6.800286711e-09
6.799511511e-09
6.799223296e-09
6.799404237e-09
6.800031853e-09
6.801072311e-09
6.802459633e-09
6.804123819e-09
6.805991665e-09
6.807987249e-09
6.810045689e-09
6.812128494e-09
6.814223075e-09
6.816340199e-09
6.818529697e-09
6.820863052e-09
6.823392178e-09
6.825732736e-09
6.826559322e-09
-0.0005327773806
-0.0001204176987
-4.448578564e-05
-0.0002144766475
-0.003330382675
-0.006331829347
-0.003384248577
0.00171167382
0.0006139033993
0.0001125053274
1.765558104e-05
3.224370715e-06
7.083627046e-07
1.854837452e-07
5.863139735e-08
2.303839734e-08
1.189201305e-08
8.374164932e-09
7.247868222e-09
6.910888622e-09
6.82283165e-09
6.806184727e-09
6.809019953e-09
6.81588736e-09
6.821965273e-09
6.826253972e-09
6.828968026e-09
6.83031665e-09
6.830450812e-09
6.82960876e-09