/*--------------------------------*- C++ -*----------------------------------*\
  =========                 |
  \\      /  F ield         | OpenFOAM: The Open Source CFD Toolbox
   \\    /   O peration     | Website:  https://openfoam.org
    \\  /    A nd           | Version:  10
     \\/     M anipulation  |
\*---------------------------------------------------------------------------*/
FoamFile
{
    format      ascii;
    class       volScalarField;
    location    "0.02499901733";
    object      ddt0(rho,K);
}
// * * * * * * * * * * * * * * * * * * * * * * * * * * * * * * * * * * * * * //

dimensions      [1 -1 -3 0 0 0 0];

internalField   nonuniform List<scalar> 
5170
(
-20859.70973
44879.08181
-20931.5227
-23863.07423
-164653.0141
-39565.51065
-38785.90303
-29927.93747
3325.68981
19432.66953
896.572375
-765.7245411
7800.629642
37574.59204
-3136.035037
-1034.139436
-3943.686497
618.227127
-3218.06288
-2004.04595
-359.5933319
-2136.864008
473.5162682
-31009.55392
-420.2710407
1470.226968
581.8404635
3854.823823
-2888.981348
5798.519026
-328.8140272
-1709.177382
-4150.924759
-26874.03876
5704.901505
-3459.363176
-1666.714812
3827.428921
4741.230901
7244.329249
957.7949136
-743.7865534
32739.05897
-8416.544167
4528.102384
5517.822037
1661.887223
19130.7894
2056.980267
9876.54877
-630.022083
1100.409004
-40485.67741
-2286.20946
1153.10456
-5027.341513
-3115.000741
34447.70693
-4311.832222
6594.253193
-2136.782012
-2599.095436
-44967.38559
-2651.625151
-3094.674477
809.4872733
-248.3374157
35214.28726
-863.4490302
10894.77228
313.33015
-606.9030551
-38833.68186
-630.3114666
-7405.145924
-1294.167103
-1399.921559
21840.13719
-2262.4293
13520.9192
-1942.888204
-106.3120345
-26588.19438
-2287.546203
-9344.631168
14610.87284
43401.57595
42656.14935
10159.38697
37456.82657
-69262.26771
-37477.36984
-12577.49143
-9495.580318
-70489.78145
-372176.0451
-450166.3273
-243481.3556
-134571.3418
-385451.49
-2302.837526
3176.070718
-828.800293
3294.107191
-3279.692415
2408.844351
2642.130169
1876.317093
1566.226791
878.9638967
-1527.557447
-2781.844951
-1627.001456
-3511.519262
-1174.277894
-1010.682719
-2163.542345
-2109.796456
-2330.93062
-696.3118253
3.731785052
-419.2479609
-64.2989351
-455.4725277
122.7961514
308.6236874
337.0061193
723.8633585
111.7863926
214.3353749
80.30520612
84.06005897
425.3382009
-25.19909137
-17.06998917
-11.79687615
-28.33515973
47.56308512
-28.71403522
-40.14093335
44.50394143
-9.093981487
-233.5950222
19.2279839
51.88074657
-50.89699671
-89.39838676
-144.8800217
-131.4033651
-44.44926228
-127.0280921
-218.325863
-289.8422884
-199.9270618
-151.7997025
-95.05873972
-132.97937
-45.90678635
-116.692983
-68.97059651
-648.9888902
-317.2535271
-95.80850705
-14.08754232
28.62119614
-999.0946144
-2116.655082
-3104.480645
-2526.344306
-1431.590043
-350.6554628
-1958.806698
-3003.61697
-2425.247172
-1540.028631
182.0053893
86.12188072
-22.7311167
-358.5442596
-187.6481169
840.148246
879.8863212
353.5527229
4.70841947
428.5528695
-2519.563035
-4647.519449
-3171.329066
-3119.619026
-1260.186011
-8746.446768
-6653.352088
-1009.430388
-3729.542759
949.5293243
-43372.61328
-3522.676031
-18640.85475
-14856.63116
942.5543972
-356771.8392
-375467.2772
-504303.2503
-531608.9233
-569107.6167
-96803.11893
-69733.32643
-89990.87971
-80971.3752
-199213.276
26869.08639
-15983.88389
1867.373334
-122864.5877
-142936.7001
14663.2982
-10893.33577
-2901.681444
-139243.3685
-103509.172
3192.888359
-3610.157495
-33946.85703
-132935.9809
-68944.64678
4425.469612
-104640.6162
-93901.38287
-97536.99708
-16768.08441
-11241.95673
-107950.1875
-67592.46723
-62335.4154
10294.60256
-44871.68612
-132911.3359
-69041.46737
-43324.40716
21460.79924
-84879.87011
71658.94661
-75084.19865
-24485.6456
26701.94147
-111239.4409
-89800.92679
-60117.00397
-12705.21758
23326.21571
-92182.24272
-71585.10711
-34277.71837
3606.099252
22321.56083
-63282.14276
-54375.5521
-22401.73909
5905.422781
23933.75821
-42384.44474
-37162.73216
-17536.31642
-178.484815
19022.93031
-1443.902546
305.0132194
1013.28695
9578.109419
7872.109094
4147.148551
9741.525177
12539.54453
17340.00419
14088.71899
15651.47474
18340.26105
24814.33642
24712.47056
27962.84422
33293.24432
35052.09322
31203.89022
27496.79768
23179.63514
24194.05565
24103.68501
25291.30574
22426.69075
16781.56025
2542.197405
721.3506788
5120.267076
5334.207352
6039.850714
5559.350979
3696.11272
2673.953793
-80.87226089
-1667.980196
36277.89181
24145.22138
13814.11281
6207.993413
1368.131506
34148.52664
29190.63867
22287.38989
16235.95917
11196.46837
26572.2726
24229.23945
21036.21437
17636.95135
13074.84822
21846.78404
21063.2301
19491.62282
17145.97153
12757.29514
10014.02676
11711.01324
14677.27188
13973.89993
12521.35523
6022.842454
7812.465378
6264.982915
5390.903899
5378.844277
8205.838325
8095.675466
4178.978751
3233.483592
2811.090239
2065.367697
3529.194607
6447.108479
6704.345565
6747.589232
1362.391061
2621.919065
2207.901434
1722.654393
1786.315053
2338.366521
3519.958848
1823.126993
1146.641734
1498.797677
2002.029254
1371.865167
1091.698129
1260.996162
1416.709978
2818.536632
1302.922182
1010.399313
995.4693876
1429.751866
2678.214459
2803.941229
2803.610842
1333.513338
1189.504969
835.1186917
684.1203524
773.25587
755.028557
725.373317
526.6218805
681.698927
493.5334936
538.1784316
910.228246
513.9647697
342.4583355
418.2626286
469.1164192
604.9344519
240.6432995
221.791313
218.9439301
221.5677289
269.7450573
196.9347329
307.6499023
193.9540011
208.5664952
457.6899504
225.9536232
137.8878419
188.056177
233.4064303
309.8539339
96.80114343
79.85789917
86.04125395
98.88131434
74.68798031
75.76174505
64.89358719
70.91133775
69.11350048
63.77872799
56.71802391
153.1246794
66.41371873
71.37599358
182.056748
130.3333912
50.47946648
91.16255058
132.1006273
195.2914825
32.0033636
29.43017997
40.9775071
31.51085703
41.48668895
28.62114732
29.36273268
27.66285777
23.80481137
22.16243692
28.20911237
29.89208376
25.73137828
20.77169685
26.23781364
40.99003752
93.94577606
35.98396747
40.98089132
100.4662768
89.12667387
41.93491282
62.31348268
95.06385315
133.6253032
48.85327848
44.66133227
45.11180209
41.93124445
47.59876404
56.13188591
53.89871941
53.08826913
50.58855793
53.80664272
61.52089698
57.81284183
58.17937481
57.51028308
61.80850773
66.25016753
65.36754164
67.20606764
66.47902826
73.60031765
76.82942919
74.92249496
75.41365479
76.26966549
79.47784557
88.81038437
110.1736156
86.80372679
89.61906145
135.5700325
113.8861989
89.46599571
102.0346811
123.7610418
154.1474118
86.57814199
89.33560304
89.87831737
90.24451661
94.70954024
87.1186315
87.19791648
88.79438568
88.99354775
90.60973062
85.93539107
84.7973512
86.55014977
87.60533471
88.5706336
84.11933887
81.60231203
84.04356854
84.74441016
87.69972596
80.22723842
78.4478637
78.90344228
80.39107748
82.72108724
75.39934572
73.39504941
73.80709647
73.98257539
74.90357538
69.89731135
68.45030669
70.39059026
69.96699021
70.3175374
66.58986963
80.2288605
66.31574114
70.01969062
94.97107684
430.5141435
447.2418203
449.0094898
449.8120907
445.4713336
82.99170115
83.03435107
83.59876157
84.72928576
100.3088413
65.31070729
63.81864438
66.27547753
67.13857682
67.69897312
58.33628677
67.121406
60.85748334
64.6349548
71.09202847
60.70733959
61.44338784
63.7130201
64.7913874
65.74159497
42.3958807
51.5914397
44.44348471
48.82230044
66.51205844
170.5029867
174.6472645
177.2529424
176.5678325
176.6407303
-307381.3495
-284759.9892
-36525.18804
-13391.33288
20303.37518
45860.47603
54720.58752
50178.12625
44769.37706
35493.09918
28496.86416
25031.46208
18813.39038
15476.12535
19384.14737
26400.33924
19565.91176
16648.45326
7018.055123
-5838.475926
-2322.692968
7071.707165
11462.67017
11944.23543
9963.98691
7549.765531
6148.003859
4909.115851
2558.98191
2171.837836
2054.494353
2244.116
749.8742634
920.8065437
1673.662476
293.7974893
356.0766807
856.6151138
185.2575704
130.5319812
106.9212884
253.6167365
37.49041499
-2.181252758
21.49593539
15.98211181
268.0172749
61.05336981
30.03940661
47.7995039
57.67138182
50.8039807
86.77569501
213.9911074
106.6645377
92.76651999
99.28631578
97.14310413
89.0178305
81.16174088
79.85205682
76.34212102
165.8166367
441.4073376
89.05433186
66.88485117
70.75497956
64.60559201
72.72466659
176.1582766
-143399.5962
-135778.3431
-209053.4253
-56069.14044
-15757.07353
-5350.30875
-22308.30775
-93566.77172
-49233.48462
-12631.50087
46477.80423
4983.866267
-23109.36442
-42982.92116
-19863.62808
86548.41787
84611.89909
7988.166788
-33438.89782
-23797.30962
108467.7913
96651.98651
18583.33103
-20835.62297
-20180.53657
104978.5619
88000.69712
24262.99851
-10679.85616
-16239.95797
94317.4323
72404.66159
23163.52634
-3931.388052
-10778.37048
75819.19319
57818.36123
20650.85152
-113.3856089
-6538.101576
59927.4105
46206.57539
19066.03487
2646.088074
-4688.437464
46249.66422
35767.9846
16824.331
3598.188689
-2637.101691
35184.11251
27951.51541
14341.67277
4401.738487
-434.7635589
27251.37271
21738.19027
13494.62246
6081.530329
204.0843946
22584.52656
20122.89311
14449.65403
6205.48802
2829.527023
19646.28565
22816.37671
11028.83196
7922.41362
8721.517725
22926.38454
18215.33836
10505.81038
12407.29104
8351.451746
22878.02195
14846.88122
17762.89771
10392.55321
6322.613075
20000.85453
16625.65758
14927.46971
11801.63769
9936.267706
16406.90061
17042.59063
14436.46744
16042.06892
13133.58093
8049.083529
5053.519942
666.7260461
-171.2096144
4206.679311
-5793.789216
-7020.61872
-9770.81938
-19451.59882
-18173.43882
-5696.076647
-10539.21877
-11154.82205
-15169.21142
-10784.69301
-633.7461512
-5875.857957
-5742.390263
-7557.407166
-8942.984321
5114.46236
4449.762546
-1499.016993
-3921.233097
-6823.270753
10324.73899
2875.110157
153.0210049
-506.7403969
-3102.445241
6497.187265
4227.341909
3895.850308
765.1274521
45.95643786
5778.949753
3974.213515
2839.703992
1550.772517
2093.238754
6908.432409
3502.886151
2813.073
2069.31675
1355.03775
2527.793678
2125.484641
2512.56027
2365.061579
1905.396973
1891.618665
1702.222575
2278.307664
2030.556264
1757.234192
1447.364681
1619.965192
1933.222709
1397.835181
918.6823855
1420.136037
1709.107021
1539.167735
1024.922896
1134.545563
2936.74559
1100.253442
976.2537976
1150.26247
1059.251336
1428.316919
859.6838703
1083.184082
977.9507966
630.0883063
656.8698824
1009.359524
902.2248967
553.9393328
442.2446249
851.3120642
451.3392757
414.856487
362.8757631
631.6235442
386.4038642
314.1359863
291.7206156
642.8104348
579.784583
230.3738394
427.0157939
1408.124432
375.9305249
171.716228
1335.845866
350.7377764
166.560644
126.3705857
119.3675331
537.7241336
149.7244437
99.04145888
104.0699636
97.59053625
70.28510741
76.95387105
82.89079927
101.8425801
352.6889441
79.16932721
97.60743852
384.3668962
330.7586413
75.10866991
365.3175518
305.3239733
69.71230951
43.71249747
40.3340982
351.7785055
87.90209929
34.05924806
22.12939846
21.34717108
20.36551943
16.06380012
18.07417636
18.05317522
29.24990612
13.87573358
12.93357597
18.08826939
32.36933297
243.5523981
17.05991213
17.15596576
39.00309867
251.095491
234.8626834
52.2323312
276.7113838
231.4487458
37.34702761
17.21320006
247.141632
67.10014368
28.42048636
25.61520528
23.26914679
37.20135221
36.37040381
33.94381628
33.17343273
31.22099945
46.82178091
46.287175
47.96507602
46.44549112
47.02802426
56.0552016
55.98098988
59.87795241
57.98779833
58.31101368
67.01380957
67.51460221
68.309688
66.53417807
75.0209295
81.25470307
80.55315694
100.3442704
285.115696
259.367018
147.1361278
699.3283497
227.3041005
101.3867976
89.72954529
226.2024555
115.3871588
95.28237821
94.60053122
93.12745736
92.6010674
95.29232833
95.91913005
96.93135889
97.41569105
91.07838801
94.5502849
97.31235611
98.22894805
98.00333849
90.46868976
94.88051588
94.99852013
94.74782472
94.40009494
86.60853321
88.71037302
89.12829286
88.4013298
89.88800507
80.20490611
81.88611434
83.22039947
83.47087911
85.82006572
74.03689618
77.49895121
78.93660262
78.8507527
82.87395149
71.8199723
78.34544021
77.9359883
83.29210047
137.2277001
73.56447429
130.4073683
458.6334162
465.0906674
461.1232978
450.4108944
446.169647
122.2404359
69.00848196
67.24788996
141.2600557
87.04660111
83.2389267
67.41737004
70.34867577
67.15721959
68.81554265
68.85397183
68.1536389
69.2861617
67.14873681
65.84511319
65.71974918
67.8470176
72.97719034
66.16434419
68.76978272
69.580633
70.56653267
71.18017446
62.29094122
54.78960956
56.05888534
59.51766342
63.82318414
178.8332905
183.8739238
186.8715133
192.527474
196.5020102
-3972.052668
-371.132705
274.6867127
147.0073936
-94.79782339
60.27698832
-134.2544637
48.192887
22.80976752
-17.9678347
2.715438789
4.608515985
-9.8648283
-2.797292789
-2.802572077
-1.643963814
3.214628795
2.777485827
1.664397856
0.5138875238
0.5260282254
2.425189955
2.398879375
1.743049752
1.702087306
1.462136225
2.0464065
2.534489235
2.393489914
2.343418454
2.319837025
2.046288625
2.01125743
2.125001377
2.016203859
1.912757695
1.778971518
1.839848128
1.988407596
1.403454723
-0.1509587795
0.2440370677
0.7111302179
0.4892283812
0.3168376639
0.09913468046
-0.1126703726
-0.2259662721
-0.3891768708
-0.5084038763
-0.590093054
-0.8112702236
-0.9242144825
-0.9196834151
-0.9816972239
-1.043608978
-1.047515631
-1.166402828
-0.5037443404
0.120859426
-4763.769188
35.23564314
-42.82124879
-54.38502562
-138.3669641
-9.850324545
-12.7898733
-40.71067581
20.22527185
29.26561093
-5.368596081
-17.09196814
2.449854747
11.89196637
-0.9001152851
-4.626986867
-1.359955219
0.7163051179
4.452672694
4.694533944
3.644433537
3.624050605
2.40747696
3.169302763
4.302911161
5.273870952
5.765105019
5.894990538
5.665907238
5.764119179
6.183710766
6.136474517
5.985985489
5.948039542
5.790267358
5.450639753
5.183782055
4.806825676
4.317986765
3.852067468
3.311393097
2.783123475
2.140270092
1.492343373
0.9529860365
0.3608709044
-0.2477319226
-0.7358351059
-1.198871295
-1.61527415
-1.959000268
-2.33813011
-2.637286646
-2.829974628
-2.996126544
-3.146526892
-3.158080265
-3.314761583
-3.095030978
-3.1530871
-4055.068572
1003.301179
21.32579405
21.08351689
-363.1171229
168.2955308
-15.33550188
5.327199206
22.31431652
-1.125661271
-6.552318147
2.993374232
-0.6500469328
-5.801091991
-4.80045456
-1.887738934
0.4652511066
1.522882562
2.970189206
3.615719071
3.080630784
3.444908624
4.951014151
5.945190924
6.507007821
6.558171936
7.122313115
8.274230602
8.798063204
9.164321992
9.394149488
9.266699155
9.347681372
9.476451062
9.18751447
8.700565995
8.212982327
7.693962254
7.068019539
6.265805216
5.419335894
4.580666556
3.603437793
2.636721418
1.727763411
0.7824952204
-0.1390293358
-0.994068218
-1.817530979
-2.549423668
-3.174296324
-3.729367003
-4.211180882
-4.588686324
-4.856562135
-5.039316237
-5.096441224
-5.172543731
-4.883866151
-4.978463545
-9133.762264
-103.6280242
107.9865659
-74.44357789
-6.532700814
59.57842499
7.787324036
-23.94848025
-10.99266162
7.291779853
-5.395481103
-20.59487155
-17.84131107
-5.358403851
-0.8218164716
-4.714675131
-4.513023571
-1.321743179
2.49727108
3.264394114
1.791185774
1.940143381
4.200520912
6.306082529
6.979175001
7.435947972
8.451785294
9.711477988
10.85609217
11.37217398
11.23022051
11.36224976
11.84003069
12.03080587
11.73170354
11.11050976
10.45298067
9.880161301
9.06299051
7.991545468
6.943139699
5.782058926
4.483549026
3.216288918
1.986803088
0.7210612563
-0.4900754233
-1.584154579
-2.639366582
-3.60372371
-4.438855981
-5.154500942
-5.754874692
-6.217190555
-6.564010637
-6.779302805
-6.915502409
-7.047695774
-6.666373622
-6.70206898
-12003.85004
-19.29003002
-57.2677709
-69.50679845
-192.8099902
188.4803655
15.89510293
-36.35359715
-13.1736355
1.082369039
-15.64518069
-25.90058908
-18.40941441
-9.278829726
-7.879051319
-9.390154695
-5.92676418
-1.157349013
1.04490471
0.2598911585
-1.288603836
-1.642184408
2.547960315
4.492235909
5.78053517
6.951993558
8.283529728
9.641518566
10.7510676
11.52311326
12.11497906
12.66186192
13.02676392
13.10300191
12.91040204
12.55660556
12.00322707
11.2436505
10.28229092
9.238139784
8.018579183
6.641556131
5.119239427
3.619462122
2.1663971
0.6460624949
-0.797137122
-2.111923809
-3.365188927
-4.492022946
-5.472053017
-6.307944752
-7.036624354
-7.610719132
-7.999574695
-8.283318231
-8.426774878
-8.486345064
-8.290727073
-8.157507611
-13638.22796
-570.0435243
-324.7574347
-57.01953385
-167.8045202
86.40353333
-35.25962011
-43.64092246
-16.62158473
-8.541490598
-22.21978866
-29.79900811
-24.58611537
-17.89906555
-16.23354437
-16.3127068
-14.1199317
-10.95706035
-8.336042905
-6.714814038
-5.594284649
-4.214044742
-1.903799205
-1.650337089
1.57621162
4.027547928
5.745619302
7.411303751
8.892589612
10.12611948
11.15846049
12.00834711
12.60495875
12.91001406
12.96339958
12.79149965
12.34837852
11.66671153
10.77154946
9.678477868
8.393921654
6.955128723
5.399501603
3.757762346
2.068749083
0.4182667294
-1.15027035
-2.610000303
-4.028576126
-5.300698804
-6.352075818
-7.285683524
-8.151883052
-8.718845557
-9.114716959
-9.347345728
-9.480434635
-9.534849708
-9.520095434
-9.319278971
-10711.60309
-6363.605419
-490.4292025
-119.2990905
-30.06578822
63.37385279
-36.51019817
-39.28097168
-22.90070957
-18.79855202
-30.50502726
-36.38435249
-31.35012114
-24.91021271
-23.02895988
-23.00455852
-21.66422005
-18.80737301
-16.99479184
-14.89529771
-13.43742612
-11.22638191
-6.71119174
-4.33272407
-3.024015929
-1.199435037
-2.071323586
1.455541931
4.905146551
6.638714578
8.125626652
9.351268976
10.32995647
11.01064624
11.38434503
11.48684378
11.31556135
10.8494134
10.12621025
9.198342354
8.039822105
6.646460257
5.097150326
3.400155968
1.654515895
-0.05515273908
-1.726312696
-3.356318842
-4.825313159
-6.175660224
-7.21662565
-8.137855672
-8.904928993
-9.465495241
-9.926266056
-10.15507726
-10.24621087
-10.36156091
-10.24526171
-9.997144489
-8905.359098
-6434.41311
-578.9828524
-125.7342116
-145.166523
43.07815525
-36.95962222
-73.17037397
-30.84565504
-24.39204681
-38.33766099
-44.10532592
-38.18585615
-32.8670235
-31.86189524
-31.69922145
-30.59542219
-27.89830645
-25.51416984
-23.5528891
-21.93952663
-19.80820906
-17.71340941
-14.79135728
-11.8221884
-7.349272656
-3.806049912
-1.701341821
-1.403619846
-0.792108427
2.038767192
5.085649205
6.48951729
7.614424034
8.425837081
8.864175757
9.069295556
8.769923892
8.422698541
7.774668423
6.908837723
5.645595674
4.133491512
2.493823034
0.7926919937
-0.9116737233
-2.553445728
-4.094844444
-5.493102947
-6.745686633
-7.843200443
-8.746316207
-9.374049899
-9.925952509
-10.37685728
-10.65689883
-10.70830709
-10.752178
-10.5296795
-10.30842743
-6960.316417
-6298.832623
-3109.001015
-302.7585678
-214.8232699
78.66737443
-61.92249741
-103.6375868
-29.56884008
-18.63480772
-46.40639031
-54.6005971
-43.84772827
-41.21280482
-41.21081313
-41.55592963
-40.41901295
-38.16570725
-35.72829793
-34.18722314
-32.02610974
-29.3991121
-26.80603226
-23.46154625
-20.2867011
-17.58260446
-15.39361048
-12.25253279
-7.094272314
-1.551793385
-0.6309894434
-0.6057556249
1.348809487
2.960877836
4.190220824
5.065558973
5.558659134
5.723066694
5.578361383
5.084804571
4.365599884
3.385684219
2.195944269
0.8771990182
-0.5458597084
-2.047128488
-3.511380025
-4.853067043
-6.106550363
-7.200946329
-8.260951708
-9.104751123
-9.749038406
-10.23498281
-10.58036956
-10.76756715
-10.83183599
-10.85272088
-10.59388152
-10.37750115
-4732.977362
-5285.636238
-4785.669975
-366.6359663
-151.2131059
72.89103433
8.750165814
-96.35847755
-42.02719945
-29.10737579
-48.48625938
-59.62900735
-50.4628631
-47.49650499
-48.44372359
-50.6568518
-50.71392555
-47.84927707
-45.94313152
-44.37115185
-42.22851804
-39.73791114
-36.47841523
-33.08357082
-29.94313806
-26.50189897
-22.7432236
-19.09478232
-15.97074447
-13.3697294
-10.7815171
-6.524823956
-1.677514052
-2.565327133
-0.9081215109
0.4132347532
1.271077141
1.956179283
2.020544754
1.812989168
1.267092489
0.6533288862
-0.104421515
-1.027431149
-2.078367836
-3.234591944
-4.445239062
-5.610191094
-6.702043421
-7.713762012
-8.589986959
-9.309442475
-9.879383916
-10.29172682
-10.56912085
-10.71011716
-10.72577206
-10.70062302
-10.4201375
-10.19128666
-3078.401668
-3137.047345
-3731.077738
-2664.025941
-322.6949454
60.59040139
-8.199405472
-98.37097171
-61.70500974
-34.44843686
-54.51810136
-62.17469932
-56.67901275
-55.38224156
-55.4119229
-56.44476142
-56.50998532
-55.94916643
-54.84789946
-53.08230727
-51.237283
-49.05941812
-45.7974685
-42.18555597
-38.854502
-35.13334902
-31.3020219
-27.59494478
-23.83416211
-20.32369271
-16.88568119
-13.73665931
-10.97293837
-8.554178361
-6.401908845
-4.6496872
-3.333446122
-2.349616658
-1.754240212
-1.526077011
-1.59227258
-1.861220574
-2.334637047
-2.975533703
-3.718498618
-4.573043047
-5.491256677
-6.408011607
-7.285235653
-8.120268309
-8.838778339
-9.428170749
-9.883286669
-10.19981286
-10.39581601
-10.46497575
-10.42386838
-10.36614373
-10.06160766
-9.839019756
-1625.231789
-2231.730327
-1840.569689
-2582.21101
-1223.476852
-112.3965609
-51.62169062
-46.16224777
-65.87411583
-53.03488884
-60.69363968
-65.693684
-62.03882376
-61.56262895
-61.07110983
-61.06280277
-61.26165669
-61.00519523
-61.14054651
-60.06515905
-58.48266444
-56.55986221
-53.59479177
-50.24029213
-46.62550294
-42.83116842
-38.99271982
-35.10373202
-31.18351951
-27.39783201
-23.74811793
-20.31160854
-17.14375836
-14.33626001
-11.79764954
-9.62192709
-7.901086521
-6.527616684
-5.51230614
-4.846648598
-4.504465629
-4.380002557
-4.498638285
-4.837704529
-5.289480082
-5.848711743
-6.507625267
-7.179992621
-7.831177
-8.458496965
-8.997716793
-9.440777702
-9.768746741
-9.982440073
-10.09179771
-10.09452755
-10.00173491
-9.913655591
-9.587475644
-9.372270394
-537.2012369
-1767.855869
-898.8371037
-2565.764864
-1660.485322
128.407742
26.24246074
-67.72854671
-21.5449396
-52.12473589
-66.40365936
-70.98427086
-65.29602193
-63.36873234
-64.59058562
-66.59493726
-67.11695547
-65.7522823
-65.77247923
-64.97247109
-64.13438066
-62.06252999
-59.38586782
-56.16959249
-52.58727869
-48.95861084
-45.1695536
-41.20382031
-37.20674992
-33.26901908
-29.46885571
-25.83804644
-22.43698556
-19.33483412
-16.5396256
-14.09601616
-12.02221272
-10.31464618
-8.964591374
-7.958134184
-7.271287809
-6.824458411
-6.632472537
-6.644594734
-6.817751083
-7.099004697
-7.493170208
-7.918228041
-8.345692239
-8.756735314
-9.108297287
-9.38783598
-9.586929904
-9.692248442
-9.717362612
-9.659819519
-9.524117404
-9.418644353
-9.104633699
-8.898671163
3290.545649
253.9943478
213.7764149
701.0758984
-2133.666304
-926.1786659
-90.55821911
-87.03047964
-59.2538999
-60.24058624
-77.3775138
-79.29199424
-73.49505519
-68.0930082
-68.30500058
-70.13315088
-70.86807593
-71.46410976
-69.0284261
-67.75762868
-66.55015382
-64.56533643
-62.12644035
-59.11231612
-55.77272272
-52.35517567
-48.71581748
-44.87924299
-40.9725599
-37.09375427
-33.31040058
-29.67925551
-26.2290359
-23.03095438
-20.12715472
-17.54493664
-15.29462043
-13.38510119
-11.81908858
-10.57885241
-9.638682864
-8.960606663
-8.520735919
-8.281110793
-8.203631428
-8.242009812
-8.394997559
-8.590542834
-8.807843503
-9.017924112
-9.197831266
-9.326804528
-9.399027152
-9.403743692
-9.356332302
-9.248109439
-9.085872968
-8.968600284
-8.697071343
-8.511038249
5675.381998
854.7122804
746.8123538
1372.968427
-971.5696462
-233.7241306
-575.9086136
-223.0363506
-86.08514176
-51.15298523
-82.72805612
-84.63504852
-76.45629611
-71.74132656
-68.67333106
-69.97504113
-71.17372423
-71.79870966
-69.49147737
-67.74128896
-65.72661973
-63.94883289
-61.68366392
-58.85779827
-55.84295197
-52.62519395
-49.24944702
-45.71406095
-42.06785275
-38.43572179
-34.85953845
-31.40028652
-28.10523602
-25.02790442
-22.20592621
-19.66662292
-17.42924864
-15.49033713
-13.86348687
-12.53214532
-11.47010598
-10.65723766
-10.05902956
-9.644750619
-9.382536105
-9.236010328
-9.185729722
-9.187866089
-9.217555047
-9.254429567
-9.275600339
-9.271658055
-9.231291735
-9.149608
-9.037398735
-8.886304343
-8.706885285
-8.581705586
-8.33790082
-8.19914525
7214.923044
1135.923008
-1355.574754
936.4875684
-469.1827256
-1113.87381
-870.2736475
-105.5430631
-91.23001788
-97.58125027
-59.33945382
-91.68270604
-91.34803701
-78.91086061
-73.42263158
-77.37004428
-74.97674177
-70.43654036
-66.93462284
-64.32052984
-62.38024559
-60.35034924
-57.91990243
-55.1946757
-52.35998481
-49.49849144
-46.52455977
-43.40867336
-40.19265755
-36.98631432
-33.84349311
-30.77757824
-27.86155287
-25.12042315
-22.59179051
-20.30810459
-18.27178407
-16.4910132
-14.97167625
-13.70138201
-12.65732653
-11.82565065
-11.1717256
-10.6745026
-10.30255188
-10.03659925
-9.839363584
-9.697710501
-9.579896843
-9.478416188
-9.3773408
-9.259224304
-9.128101809
-8.977473746
-8.817805061
-8.638383915
-8.452715352
-8.33220513
-8.117688287
-8.014899877
6730.290175
4151.655097
1174.175712
787.982962
-1129.266679
-1993.157904
-623.4164662
-394.3112117
-109.8780497
-62.47206875
-87.72893287
-69.05811623
-93.90602049
-89.08909147
-76.58721077
-68.48112622
-64.02509691
-59.81148438
-56.51851758
-54.48765369
-52.94746078
-51.35314963
-49.43627369
-47.23586422
-44.94315809
-42.64613565
-40.29535099
-37.83057774
-35.28821225
-32.75013272
-30.25872028
-27.83590202
-25.52443955
-23.34247053
-21.32938585
-19.4958746
-17.86045518
-16.41204259
-15.16101907
-14.09761338
-13.20381418
-12.46658362
-11.86002664
-11.3685303
-10.96346059
-10.63375403
-10.35345043
-10.11549021
-9.895268975
-9.692339637
-9.493648957
-9.296115316
-9.100734832
-8.898888957
-8.708702658
-8.515461519
-8.33483471
-8.226686103
-8.04485946
-7.959431918
8951.631894
4823.234208
4046.661871
-499.3965926
-1685.445563
-1939.440376
-1025.662467
-301.6509079
-160.9407229
-44.55690397
-4.923138881
-16.12116145
-15.46187007
-52.57090087
-57.74024322
-42.28119444
-39.55443209
-38.72894875
-38.19469246
-37.74177352
-37.42754072
-37.00183262
-36.22709913
-35.05057663
-33.71570144
-32.36371716
-30.94778931
-29.41661042
-27.78889148
-26.15939393
-24.5593503
-22.97993074
-21.46166224
-20.04412317
-18.7108946
-17.50088776
-16.40985883
-15.43732072
-14.58433678
-13.84299155
-13.205537
-12.65646975
-12.17924089
-11.76407854
-11.39135303
-11.05646878
-10.74526128
-10.45445679
-10.17281269
-9.906446064
-9.646041117
-9.394230839
-9.158430779
-8.927563389
-8.728057461
-8.535942675
-8.367999571
-8.277217859
-8.130066908
-8.083405241
3014.414133
1467.169048
-4014.176514
-4195.700464
-1975.996874
-1115.944332
-249.6405901
-62.99353013
-369.8408236
15.61870966
-24.29652342
-26.18483312
-14.50607034
9.011700584
-10.31828588
-14.07709713
-13.91045418
-14.48221144
-15.6188861
-17.07351824
-18.52224954
-19.67264216
-20.31361455
-20.42713721
-20.26858306
-20.03933073
-19.74831471
-19.32830133
-18.78212402
-18.18935689
-17.60140499
-16.99971027
-16.39167736
-15.82581012
-15.28871107
-14.77932275
-14.31599301
-13.90513029
-13.51614405
-13.16677052
-12.84141337
-12.5314779
-12.23332117
-11.93854386
-11.63882787
-11.33855394
-11.0315239
-10.72338295
-10.4139794
-10.11338281
-9.820125389
-9.543455333
-9.291185244
-9.057555942
-8.866485095
-8.693790593
-8.555717565
-8.497795395
-8.388391241
-8.365805255
-17167.50892
-13435.28169
-8795.679845
-5546.523111
-3143.012986
-2296.34082
-1427.88591
-446.0967052
-154.0214259
-84.25123694
-19.55505634
4.902372507
30.50811256
36.39344972
23.59231731
11.72170044
7.606323549
6.420425634
4.885710768
2.450896547
-0.3251741081
-2.741446071
-4.655088119
-5.942019745
-6.905420143
-7.770631534
-8.559825751
-9.205522164
-9.707646021
-10.13849582
-10.53151232
-10.88765657
-11.19076679
-11.46370424
-11.70356243
-11.910347
-12.07416973
-12.21058097
-12.30009675
-12.33085679
-12.32660948
-12.26267986
-12.15191975
-11.98691207
-11.7744872
-11.52449184
-11.23894928
-10.93363308
-10.61768155
-10.30740059
-10.00600435
-9.726650246
-9.482795917
-9.265409615
-9.099591478
-8.962470211
-8.859207115
-8.844577109
-8.786383133
-8.783325755
-13470.71616
-9042.635549
-7128.419821
-5410.030457
-3610.319661
-2102.145021
-1426.298742
-452.8575685
-362.5778386
-176.3491256
-156.7825075
-22.81892565
-2.980841395
22.04894661
35.97379053
16.38931681
14.33423255
14.46544105
14.89094892
14.07834524
12.07461416
9.727218365
7.588980055
5.73014647
4.209075334
2.605146919
1.021149728
-0.4871478215
-1.845902881
-3.152602361
-4.412339708
-5.593317177
-6.693784238
-7.703078267
-8.614541001
-9.440742951
-10.15238204
-10.75376107
-11.23754295
-11.60920686
-11.86063235
-12.00781846
-12.04496631
-11.99183486
-11.85046577
-11.64420024
-11.38115799
-11.08717656
-10.77842287
-10.4720926
-10.18403999
-9.922425842
-9.70761208
-9.526425998
-9.407101366
-9.318074619
-9.272990037
-9.302482507
-9.288755197
-9.324850291
-10191.97882
-7882.835925
-5623.805962
-4483.646966
-2910.781705
-1297.494916
-901.5137377
-825.3021742
-301.0102573
-144.1914501
-5.769781143
-46.41600941
46.46933105
35.05011461
39.29642838
48.94187606
29.68263381
25.08948182
24.34893345
23.64262075
21.63152536
18.9511372
16.39665202
14.08171276
12.02651267
9.968601425
7.822111885
5.745131957
3.75173911
1.847291135
-0.0564338285
-1.862393217
-3.541387896
-5.10110462
-6.516003694
-7.774864338
-8.882777037
-9.817091486
-10.57015434
-11.16326023
-11.59291699
-11.86808708
-11.99331256
-11.99724124
-11.89112492
-11.70568959
-11.45170501
-11.16539675
-10.86886397
-10.57585404
-10.31417035
-10.08728261
-9.917477351
-9.789708671
-9.729010088
-9.704891997
-9.722814343
-9.805049869
-9.838993049
-9.913530583
-6383.259439
-5354.003967
-3879.574795
-2556.957526
-1617.404203
-953.0609851
-1077.021593
-635.2334881
-275.2443129
-168.8889964
2.992708092
-64.9703452
-34.64803096
62.78647842
45.58813492
43.34374398
50.75693646
35.01837834
31.08570373
30.06648099
28.25099674
25.63464621
22.46113783
19.6917607
16.92814424
14.50796147
11.77525231
9.228080613
6.665337352
4.404429637
2.12539689
-0.05082052644
-2.100170658
-3.961984761
-5.64689574
-7.146510125
-8.451869222
-9.534091748
-10.41148825
-11.09172951
-11.57289178
-11.87420329
-12.01300229
-12.01251255
-11.89457849
-11.69631266
-11.43861936
-11.15065807
-10.86541191
-10.59772096
-10.3742826
-10.19969671
-10.09079489
-10.03579102
-10.05104981
-10.10301325
-10.1889379
-10.33749961
-10.4140077
-10.52311689
-3322.023542
-2846.954241