/*--------------------------------*- C++ -*----------------------------------*\
  =========                 |
  \\      /  F ield         | OpenFOAM: The Open Source CFD Toolbox
   \\    /   O peration     | Website:  https://openfoam.org
    \\  /    A nd           | Version:  10
     \\/     M anipulation  |
\*---------------------------------------------------------------------------*/
FoamFile
{
    format      ascii;
    class       volScalarField;
    location    "0.02499901733";
    object      ddt0(rho,CH2);
}
// * * * * * * * * * * * * * * * * * * * * * * * * * * * * * * * * * * * * * //

dimensions      [1 -3 -1 0 0 0 0];

internalField   nonuniform List<scalar> 
5170
(
2.709609258e-11
2.701697338e-11
2.677990359e-11
2.726144037e-11
-8.737553008e-13
2.476465598e-11
2.461737778e-11
2.444871517e-11
2.261994744e-11
2.671539289e-11
3.354360442e-11
3.358021589e-11
3.360026463e-11
3.295899726e-11
2.567315067e-11
3.595066896e-11
3.617038239e-11
3.647491149e-11
3.407502871e-11
3.017818545e-11
3.532871694e-11
3.568829638e-11
3.613683136e-11
3.676854905e-11
3.267460836e-11
3.461074502e-11
3.497196423e-11
3.539347209e-11
3.584473852e-11
3.687244757e-11
3.42520229e-11
3.46059006e-11
3.500272164e-11
3.53177697e-11
3.639040731e-11
3.411848778e-11
3.447754679e-11
3.486265764e-11
3.510116331e-11
3.600209625e-11
3.409885856e-11
3.446947322e-11
3.483289157e-11
3.5028767e-11
3.587487452e-11
3.412232172e-11
3.449400556e-11
3.48261132e-11
3.50083277e-11
3.585404452e-11
3.415100696e-11
3.451631949e-11
3.48254701e-11
3.500573361e-11
3.586552082e-11
3.417791225e-11
3.453413898e-11
3.482684033e-11
3.500600383e-11
3.58822188e-11
3.420737789e-11
3.455435227e-11
3.482723963e-11
3.500527416e-11
3.589609492e-11
3.422977468e-11
3.45638857e-11
3.481834318e-11
3.500045299e-11
3.590310786e-11
3.423487342e-11
3.456163221e-11
3.479868749e-11
3.495969553e-11
3.575848157e-11
3.421712603e-11
3.451946676e-11
3.468470645e-11
3.470349882e-11
3.517168745e-11
3.400107207e-11
3.426122837e-11
3.429331207e-11
3.410457924e-11
3.429141408e-11
3.340466612e-11
3.362428764e-11
3.358618141e-11
3.346691828e-11
3.372554247e-11
3.252031835e-11
3.268948234e-11
3.187038788e-11
2.561379182e-11
1.209141129e-11
3.005227533e-11
-2.851037042e-11
-9.867270477e-11
6.367157039e-11
1.646646271e-10
-2.546444553e-13
-2.798277597e-13
-2.441800503e-13
-2.592690658e-13
-3.137543328e-13
-4.28461936e-13
-3.920770802e-13
-4.038838113e-13
-3.900066908e-13
-4.179001721e-13
-8.536024203e-14
-1.426326746e-13
-1.29630757e-13
-1.398685904e-13
-7.909669381e-14
-4.475153697e-14
-1.009422499e-14
-1.220280913e-14
-1.860374617e-14
-2.297444053e-15
1.276379782e-14
-1.780033378e-16
9.611608843e-15
-7.946734818e-13
6.657836604e-11
-7.619717945e-11
-1.937094076e-12
2.084973315e-11
-1.386466659e-10
-7.915400349e-10
-1.126893181e-08
-3.552599636e-10
-3.559382995e-09
-1.488436102e-08
-9.714136479e-08
1.976589501e-06
1.691739067e-08
-2.097484587e-08
-5.647292021e-07
-1.06770714e-07
-2.357368987e-07
-1.714745014e-07
8.689694174e-08
-4.733560325e-07
-5.689438382e-07
-4.235899487e-07
-5.520170142e-07
-5.273488644e-07
-8.210622454e-07
1.273054607e-08
1.235911091e-08
-4.238747293e-07
-5.046792102e-07
-2.191212651e-07
-5.141838141e-09
5.033825465e-09
-2.990815875e-07
-7.570606727e-08
5.862324535e-07
6.478521147e-10
2.610608167e-09
3.16163771e-08
6.478555782e-07
-1.832068188e-08
-2.410808282e-08
-2.035496073e-08
-9.912237982e-09
-1.955145715e-08
-7.537390371e-09
-7.503393954e-09
-1.616687886e-08
-1.005798675e-08
-1.008774503e-08
-1.855878401e-08
-1.145759924e-09
-1.455374574e-09
-1.804332474e-08
-1.869778973e-08
-1.090308652e-08
6.052465442e-10
5.571772275e-09
-6.946132712e-09
-8.633337386e-09
2.935501218e-11
6.842595811e-10
4.024779416e-09
3.013405367e-09
2.134044048e-09
3.888985705e-09
3.845549627e-10
1.303165474e-10
4.11160194e-09
4.179563976e-09
2.583188475e-09
3.545982805e-10
-3.900082596e-08
-1.036142556e-06
-7.522806995e-09
-1.193548775e-08
-1.288269977e-09
4.255172592e-11
7.302480115e-12
-1.315299437e-10
-1.724235721e-08
-2.581915517e-09
-1.905912645e-11
-4.053986233e-11
2.999560103e-10
-1.007822119e-08
-1.42925129e-08
8.864394698e-11
2.161402609e-10
2.277660452e-08
-2.235004641e-09
-1.275967632e-08
-6.053630545e-11
1.705786903e-10
-7.190266919e-09
-7.495630528e-10
-3.024793068e-08
2.015755599e-11
2.308258733e-10
1.366369851e-08
7.497252037e-09
2.704488609e-07
2.713660558e-10
-2.927590104e-10
1.007398272e-08
5.011749977e-08
-3.494608155e-07
3.252021837e-10
-2.055889651e-10
1.229313626e-09
8.767475798e-08
1.591956606e-06
-2.126221824e-10
-3.76156552e-08
-3.612406514e-09
-4.854303708e-08
-2.717264123e-07
4.324985269e-10
-1.153616324e-08
-1.125826562e-08
-1.139159609e-07
-6.699685971e-07
4.789308445e-10
-1.19868456e-09
-1.214025926e-08
-1.516843333e-07
-1.021078071e-06
6.062358488e-10
5.417609363e-10
-1.836468589e-09
-2.82081262e-08
-1.530419236e-07
1.805580243e-10
7.296342717e-10
2.737212987e-09
-5.263928949e-10
-2.475223709e-08
-3.216437275e-09
1.426634111e-09
9.585062348e-09
5.100286712e-08
2.480939003e-07
3.779335466e-10
5.890434995e-10
3.939397251e-09
1.612454089e-08
4.219581284e-08
7.089449066e-10
2.670310801e-09
3.943715957e-09
1.448677201e-08
6.993908313e-08
-1.460475076e-09
1.462080087e-09
7.872326691e-10
7.858233712e-08
2.16016422e-07
-2.052874177e-09
-4.96195887e-09
-2.039120533e-08
-1.294485389e-07
-6.224407893e-07
-7.907231975e-09
-9.978600615e-09
-9.502922454e-08
-1.673137891e-07
-6.765806262e-07
5.342247355e-09
-1.598179846e-10
-3.573593017e-08
-3.646950967e-07
-1.982802189e-06
2.865317818e-08
5.594161384e-08
1.21732077e-07
1.422966176e-07
-4.75749335e-07
3.804270442e-08
7.372441082e-08
1.79238888e-07
3.922996491e-07
6.492792436e-07
2.841137987e-08
4.993851817e-08
1.003802189e-07
2.117509095e-07
4.050002848e-07
1.461695652e-08
1.891805757e-08
3.363564817e-08
6.269340769e-08
1.152282145e-07
4.524774426e-09
4.43783669e-09
8.788452341e-09
1.263082038e-08
2.198121289e-08
1.029288267e-09
1.230803128e-09
1.60260785e-09
1.391022098e-09
4.39298358e-09
1.491816749e-10
1.837099018e-10
3.911353104e-10
2.93033221e-10
4.318377709e-10
3.581576633e-11
3.76223734e-11
4.308155901e-11
5.226690504e-11
6.109862229e-11
6.781805347e-12
7.098785768e-12
7.68323139e-12
7.545447686e-12
9.211042651e-12
1.241677108e-12
1.279126038e-12
1.309970845e-12
1.090441899e-12
2.361477444e-12
8.370071745e-13
2.943704373e-13
2.102533652e-13
1.685037764e-13
4.125269603e-14
-2.949233809e-13
-7.3824455e-13
-4.63783443e-14
3.741068948e-14
4.774843836e-14
-6.819530878e-15
-6.815139234e-15
9.697989836e-15
1.770304282e-14
1.234050104e-14
1.102549682e-15
1.069844172e-15
9.07735198e-16
3.392596483e-16
1.895973324e-15
-4.833495514e-16
-6.298630704e-16
-9.812682447e-16
-1.57767676e-15
-1.763719185e-15
-1.452599882e-15
-2.247101389e-15
-5.64931959e-15
-1.392923914e-14
-2.21704242e-15
-2.486806779e-15
-1.754349659e-15
1.342564358e-15
1.715533538e-14
-1.795327145e-14
6.587574158e-15
5.892873063e-15
5.162442087e-15
4.109817487e-16
-1.229714354e-15
2.91917573e-14
2.818975943e-14
2.64343231e-14
1.98314084e-14
1.854551718e-14
2.536793028e-14
2.497736025e-14
2.343231321e-14
2.261318586e-14
4.422463929e-14
3.496818579e-14
3.980300404e-14
4.259436077e-14
-8.53245306e-15
5.772460685e-15
1.913202286e-15
2.948291331e-14
-2.750254872e-14
1.004314907e-13
1.28020456e-13
5.846006353e-15
6.067592554e-15
2.858283736e-14
-7.973893546e-14
-6.070418154e-14
8.390736685e-15
8.393066994e-15
8.34012522e-15
9.440669692e-15
9.802330038e-15
-1.527012367e-14
-1.363101621e-15
7.993769771e-15
6.278701295e-15
2.587770942e-15
-2.740031877e-14
-3.255623571e-14
-4.530482783e-14
-3.935342363e-15
-6.526602558e-15
-2.444955638e-14
6.209764687e-15
1.188047917e-14
-1.830003755e-15
1.310939178e-14
-2.526263774e-15
-1.18051155e-15
2.492957809e-15
-4.022428703e-15
-3.354207018e-14
4.091682805e-15
3.918037528e-15
5.792931395e-15
5.070625063e-15
-8.564981844e-15
2.170218481e-15
1.983498777e-15
5.456014305e-16
1.603921748e-15
1.234522748e-15
8.650708498e-15
8.659275611e-15
7.277085642e-15
3.29028772e-15
2.182446331e-15
4.515573884e-16
4.462837131e-16
8.496757524e-17
-2.157820133e-15
-1.165159744e-14
1.217513122e-15
7.501219982e-16
6.095590859e-16
6.688926243e-16
1.172012083e-15
6.040329529e-15
5.741149823e-15
5.623417637e-15
5.637753243e-15
6.265292215e-15
9.60178685e-15
9.597462482e-15
9.49052334e-15
9.193237752e-15
-1.646203785e-15
1.604321505e-15
1.659833277e-15
2.180980549e-15
1.79872651e-15
1.441521336e-15
4.34628962e-14
4.252548137e-14
3.734880352e-14
1.290296234e-14
-3.333164974e-14
1.801640771e-14
1.835431884e-14
1.873928835e-14
1.427624664e-14
-1.642593625e-14
-2.273318143e-14
-2.298892414e-14
-2.320651549e-14
-2.320422947e-14
-2.152850337e-14
-2.336507515e-14
-2.3691006e-14
-2.404497398e-14
-2.42387782e-14
-2.254555681e-14
1.164506805e-15
1.418470183e-15
1.749168538e-15
2.098422939e-15
2.104789401e-15
-5.559607512e-15
-5.77416422e-15
-6.488884285e-15
-7.798143375e-15
-1.000212454e-14
-1.086102423e-14
-1.060721606e-14
-1.081332639e-14
-1.211120133e-14
-2.086094429e-14
-9.170709689e-14
-9.04413692e-14
-8.638919813e-14
-7.540787244e-14
-6.728953849e-14
-1.925273027e-14
-3.414354209e-14
-2.34115302e-14
-3.544505795e-15
-2.103674251e-15
1.953542083e-15
3.351561461e-15
5.245659147e-15
6.863087846e-15
7.423109178e-15
1.500295789e-14
2.115631399e-14
3.668828663e-14
7.678609491e-14
-2.5690644e-13
1.049364564e-13
1.090433147e-13
1.126042347e-13
1.078438875e-13
8.81738024e-14
6.912955871e-14
7.334648397e-14
7.66129616e-14
7.045173779e-14
4.696197439e-14
1.287651296e-14
2.025793447e-14
2.758358438e-14
2.609766334e-14
6.616058221e-15
-3.806800316e-13
-3.809842472e-13
-3.817548535e-13
-3.801717282e-13
-3.723557763e-13
4.326068899e-09
-1.230899796e-07
-1.556071428e-07
-5.035988731e-07
3.911492909e-06
-1.399333032e-05
1.008505267e-05
3.645865934e-06
-1.904059331e-06
-1.667775914e-06
8.136227646e-08
-8.387586818e-08
8.080101734e-07
1.7058956e-08
3.440340299e-07
6.021375283e-07
-1.748033328e-06
-2.21201673e-06
-5.986984525e-06
-2.984713398e-06
4.081333132e-07
5.500927263e-07
1.692431453e-07
3.2203224e-08
5.156579033e-09
5.470876647e-10
6.689498066e-11
1.875631894e-11
2.171470703e-12
-9.49193263e-15
3.972050213e-14
1.07685069e-14
1.056969429e-15
-2.601792121e-15
-9.148754861e-15
-3.364361891e-14
-6.19303486e-15
2.061631694e-14
4.326709782e-14
6.157083136e-15
3.731893392e-14
1.119340658e-13
7.747528614e-15
1.681624844e-14
-5.221868305e-14
3.079317352e-14
2.938657436e-14
-1.185514328e-15
2.495837703e-15
1.8309856e-15
-1.56363691e-14
-7.593224979e-17
7.128554129e-15
-3.6566854e-15
1.383721458e-16
-3.381229981e-14
-1.323939352e-14
-1.772000183e-14
-1.788086993e-14
1.552675571e-15
-9.89227778e-15
-4.114779863e-14
-6.811781857e-14
4.343115522e-15
1.380560613e-14
-9.003997356e-14
1.095029188e-13
6.433564493e-14
2.163219761e-15
-4.062968015e-13
-3.999961645e-09
-4.601615124e-09
-2.766624702e-08
-2.211968395e-07
-1.712920843e-08
2.92373718e-07
3.148882099e-06
2.578420497e-08
-1.795346711e-08
7.521018736e-10
-1.440911485e-07
-5.703432489e-07
-1.288344657e-06
-7.234918642e-08
1.185223835e-08
-1.98097007e-06
-2.693936287e-05
0.0001321872099
-1.508820191e-05
-7.056872611e-07
2.80414414e-05
-1.107780302e-06
-3.765655383e-06
-6.724424115e-06
-5.171762486e-07
-0.0001582363631
-8.363587432e-06
-4.025964021e-05
-4.875991897e-06
-9.308771645e-07
4.801192827e-05
-1.187738693e-06
-2.38703212e-05
-2.760767669e-06
-2.281572524e-07
8.464316044e-05
1.141484268e-06
1.615911079e-05
0.000117852356
1.57829192e-05
-1.264753365e-06
-6.296478474e-07
2.966304067e-07
1.030691271e-06
5.251019531e-06
-8.224512764e-06
-5.562735707e-06
-1.911699868e-06
1.875922263e-05
2.985509065e-06
3.614286618e-06
5.220110569e-07
1.075386576e-05
2.20289097e-05
4.696469922e-06
7.897975493e-07
7.092516231e-06
5.577392771e-06
1.761047363e-05
-1.214692432e-05
3.172524655e-06
1.369084108e-05
4.458655724e-06
1.282341046e-05
-0.0002297536635
1.458362513e-07
6.311338308e-06
-6.166874605e-06
-3.923152825e-06
-2.036594622e-05
8.532311699e-07
1.005959561e-05
3.57450095e-06
-7.882487153e-06
-3.264435466e-05
1.670574852e-07
6.488468312e-06
-6.235282388e-06
-2.429753507e-05
-0.0001094209789
-3.936584472e-06
-3.941680221e-05
-3.189084927e-05
-0.0001266959022
-0.0004123555251
-5.11218329e-06
-2.727331321e-05
-9.042685862e-05
-0.0003545754176
-0.001173183111
-1.425085394e-05
-4.443568751e-05
-7.920616857e-05
0.0002392382335
0.0007663764647
-1.083378699e-05
-3.988961922e-05
-8.390809499e-05
-0.0001501975902
-6.207237504e-05
-1.618948631e-06
-1.111375685e-05
-2.987486927e-05
-4.509618774e-05
-4.963063098e-05
5.352187943e-07
-5.153690064e-07
-3.799448622e-06
-7.357731534e-06
-7.712941723e-06
2.496935988e-07
2.823367519e-07
4.434188194e-09
-4.777754837e-07
-6.230885481e-07
5.274734527e-08
7.860598434e-08
7.195701704e-08
2.74361805e-08
-4.868731303e-09
7.918744716e-09
1.227970473e-08
1.367345364e-08
1.040971775e-08
5.904942473e-09
8.114567238e-10
1.233278246e-09
1.540149504e-09
1.503467959e-09
1.099379043e-09
9.433132815e-11
1.278050276e-10
1.397219713e-10
1.471117301e-10
1.918302224e-10
1.540467588e-11
1.299243946e-11
3.970995999e-12
-8.137852817e-11
3.486803842e-12
1.980092582e-12
2.610286978e-12
2.053082567e-12
-1.485282139e-12
-1.202401474e-12
-7.649559296e-14
-3.477504435e-13
1.465202229e-13
1.10621115e-13
-2.623241101e-14
4.192802238e-14
1.103490887e-14
3.810108392e-14
-1.418160564e-14
-2.425404632e-14
1.472868914e-14
4.603642027e-14
4.498069401e-14
6.145315318e-15
-1.134055402e-15
9.351753894e-16
1.812610889e-16
4.257414124e-15
-4.864055511e-15
-9.57781756e-15
2.38230968e-14
2.121953168e-14
1.359596029e-14
2.961178844e-15
-4.930230284e-14
-1.694303782e-14
-2.344291525e-14
1.840831868e-14
-4.252161957e-14
-1.00036858e-14
-5.455578394e-14
-4.59960563e-14
-2.647943935e-14
-2.683667122e-14
-3.101490817e-14
-1.348429535e-14
-3.101649718e-14
-1.993808788e-14
4.840049293e-15
6.73009427e-14
4.27147928e-14
2.81268046e-14
3.895990405e-14
3.91115592e-14
1.110071499e-13
8.877354588e-15
2.104691103e-14
3.213858533e-14
4.095086282e-14
7.746980602e-14
5.680501112e-14
2.620594506e-15
-3.249404554e-14
4.622835668e-14
-1.934727033e-14
4.077957084e-15
3.794747091e-14
-3.002984643e-14
7.206420166e-15
1.016996659e-14
-4.043146289e-14
2.784885234e-15
1.572325329e-14
-1.792259451e-14
-2.191526524e-15
6.829316845e-15
-1.820390943e-14
-1.574053157e-15
-8.199240561e-15
-5.408828187e-15
1.775607471e-14
-1.067368988e-14
-2.61803568e-15
-3.32522309e-15
1.327163131e-14
2.185393516e-14
3.489411919e-16
1.335394935e-14
-2.573629182e-13
-2.21756628e-14
1.706273575e-16
-2.57496824e-13
-1.087819291e-13
-2.179775094e-14
7.771508897e-15
-2.684383205e-14
-3.423325598e-14
6.813697996e-15
8.095229708e-15
7.218040305e-15
-4.341418444e-15
-1.290770534e-15
-1.20342152e-15
5.014216652e-15
-3.290995828e-16
-1.32304687e-15
5.689252927e-15
2.36440649e-15
-2.668536405e-15
3.385284959e-15
3.096309699e-15
1.816912388e-16
3.261729324e-15
2.74550554e-15
-5.892783952e-15
4.107300923e-15
6.748254301e-15
-3.870122169e-15
5.534140509e-15
3.709685817e-15
1.11633557e-15
-7.898776647e-16
5.1077697e-16
1.752454411e-15
1.82339435e-15
9.338382805e-15
9.59218166e-15
7.723967151e-15
4.503514662e-15
2.689297831e-16
-1.67951891e-15
3.95994186e-16
-2.176978486e-15
4.459769152e-16
-5.955625242e-15
-1.330624255e-15
1.813978789e-14
-5.735596963e-15
9.213000393e-15
-1.005585646e-14
-2.30578241e-14
1.05387226e-15
-1.834645104e-15
-2.706619367e-14
-2.66973535e-14
-2.519428591e-14
-2.619093765e-14
-2.597753735e-14
-2.611101646e-14
-2.682307696e-14
-2.451670559e-14
-2.558725193e-14
-2.651445015e-14
-2.779726354e-14
-1.673429203e-14
-2.647784332e-14
-1.648598625e-14
-1.377678245e-14
-1.398283298e-14
-1.439266258e-14
6.025093969e-15
-5.582636039e-15
1.554084867e-15
1.979129301e-14
2.516358308e-14
-8.420321597e-15
-4.258118077e-15
-2.49637598e-15
-1.687802697e-14
2.046778701e-15
-1.177087472e-13
-6.056590791e-14
-4.904051219e-14
-4.058832094e-14
-6.854944728e-14
-5.542186878e-14
-3.94193128e-14
-7.550696759e-15
3.329014367e-14
4.17140221e-14
9.209315623e-15
1.778507021e-14
2.4815761e-14
3.097691315e-14
3.288500898e-14
1.938718204e-14
2.892092011e-14
4.288195654e-14
8.395670668e-14
-2.221368852e-13
1.826887902e-13
2.424100743e-13
2.538018215e-13
2.54453576e-13
2.566380869e-13
1.577254101e-13
1.956082058e-13
2.028089648e-13
2.169324104e-13
2.433403434e-13
1.044816812e-13
1.302797163e-13
1.574129111e-13
2.160694133e-13
2.43905726e-13
1.050129036e-13
9.975874586e-14
-6.977461362e-13
-1.520225732e-13
-2.128694456e-13
-4.171132456e-13
-4.511535893e-13
-5.093369476e-13
-4.790219105e-13
-4.919423854e-13
-1.156189915e-10
-4.003070807e-13
1.409838895e-12
-5.735316493e-13
-6.080601492e-13
-6.197385408e-13
-6.227159143e-13
-6.221873058e-13
-6.212651671e-13
-6.202875179e-13
-6.19317433e-13
-6.184026318e-13
-6.175301422e-13
-6.166819334e-13
-6.166262784e-13
-6.325070267e-13
-6.319950837e-13
-6.144882427e-13
-6.131734277e-13
-6.12581614e-13
-6.1197565e-13
-6.113804296e-13
-6.108074946e-13
-6.10264193e-13
-6.097484559e-13
-6.092640628e-13
-6.088118262e-13
-6.08388787e-13
-6.079946672e-13
-6.076262816e-13
-6.072808455e-13
-6.069557037e-13
-6.066477712e-13
-6.063536837e-13
-6.060718283e-13
-6.057995439e-13
-6.055348573e-13
-6.052765189e-13
-6.050228406e-13
-6.047729102e-13
-6.045264696e-13
-6.042834829e-13
-6.04043221e-13
-6.038053415e-13
-6.035702433e-13
-6.033385806e-13
-6.031101591e-13
-6.028860783e-13
-6.02666652e-13
-6.024539337e-13
-6.022482118e-13
-6.02048876e-13
-6.018569014e-13
-6.016726277e-13
-6.014960629e-13
-6.013162377e-13
-6.010384673e-13
-6.002503063e-13
-6.037641986e-13
-6.08728977e-13
1.987705987e-11
-4.6658559e-11
1.566615546e-12
-4.507384354e-13
-5.594107982e-13
-5.534178214e-13
-5.568173284e-13
-5.599791211e-13
-5.613766956e-13
-5.618565687e-13
-5.618183241e-13
-5.614568969e-13
-5.609725313e-13
-5.605987509e-13
-5.596895659e-13
-5.699551108e-13
-5.720260176e-13
-5.581283772e-13
-5.57271012e-13
-5.565399884e-13
-5.561354858e-13
-5.558453002e-13
-5.555876508e-13
-5.553855683e-13
-5.551136859e-13
-5.548578076e-13
-5.545675473e-13
-5.542279685e-13
-5.538912248e-13
-5.535064148e-13
-5.531173962e-13
-5.527341134e-13
-5.523438216e-13
-5.519509366e-13
-5.515907867e-13
-5.512368822e-13
-5.508895736e-13
-5.505811266e-13
-5.502974636e-13
-5.50033184e-13
-5.497972632e-13
-5.495867045e-13
-5.493998832e-13
-5.492366737e-13
-5.490902552e-13
-5.48968017e-13
-5.488568674e-13
-5.487566161e-13
-5.486643461e-13
-5.485771923e-13
-5.484926917e-13
-5.48410392e-13
-5.483307292e-13
-5.482504283e-13
-5.481711705e-13
-5.48061986e-13
-5.477644693e-13
-5.464309788e-13
-5.407287014e-13
-5.332169895e-13
6.572146782e-11
5.023335568e-10
-1.030020248e-12
-5.809559701e-13
-5.569915128e-13
-5.314014388e-13
-5.353121381e-13
-5.394683571e-13
-5.422496966e-13
-5.443866627e-13
-5.460922258e-13
-5.474579602e-13
-5.486567322e-13
-5.492573908e-13
-5.437295312e-13
-5.511445549e-13
-5.471249732e-13
-5.446213171e-13
-5.492560221e-13
-5.494793193e-13
-5.49154027e-13
-5.484078734e-13
-5.475661925e-13
-5.466888313e-13
-5.458263547e-13
-5.449920706e-13
-5.44238093e-13
-5.436099315e-13
-5.431019432e-13
-5.427120877e-13
-5.424186065e-13
-5.422086226e-13
-5.420485952e-13
-5.419201553e-13
-5.418115587e-13
-5.416999691e-13
-5.415763494e-13
-5.41439517e-13
-5.412863125e-13
-5.411158154e-13
-5.409321268e-13
-5.407339419e-13
-5.405228539e-13
-5.40299681e-13
-5.400676926e-13
-5.398268709e-13
-5.395796325e-13
-5.393237535e-13
-5.390659311e-13
-5.388112768e-13
-5.385613521e-13
-5.383155477e-13
-5.380766193e-13
-5.378466203e-13
-5.376183881e-13
-5.373572525e-13
-5.36936272e-13
-5.36187288e-13
-5.357100609e-13
-5.355781397e-13
-1.711411661e-08
-1.982313504e-10
-3.795258854e-12
-8.859650817e-13
-4.791621522e-13
-5.535427632e-13
-5.613873474e-13
-5.628259393e-13
-5.610528648e-13
-5.572626104e-13
-5.522280075e-13
-5.46412144e-13
-5.400070638e-13
-5.338044758e-13
-5.364125962e-13
-5.775317759e-13
-5.656914058e-13
-5.319388629e-13
-5.330963489e-13
-5.327571963e-13
-5.328227714e-13
-5.329760249e-13
-5.331447918e-13
-5.333171541e-13
-5.335078606e-13
-5.337126862e-13
-5.339329874e-13
-5.34160186e-13
-5.343896557e-13
-5.346162922e-13
-5.34829596e-13
-5.35005825e-13
-5.351343818e-13
-5.352120616e-13
-5.352443908e-13
-5.352537484e-13
-5.352484545e-13
-5.352422821e-13
-5.35236069e-13
-5.352197645e-13
-5.351983538e-13
-5.351664757e-13
-5.35127235e-13
-5.350827172e-13
-5.350367555e-13
-5.349977751e-13
-5.349696156e-13
-5.349505446e-13
-5.349441808e-13
-5.349500464e-13
-5.349621641e-13
-5.349801624e-13
-5.350017224e-13
-5.35025128e-13
-5.350481751e-13
-5.350675447e-13
-5.350756909e-13
-5.350519203e-13
-5.34944585e-13
-5.345980899e-13
-1.848701133e-08
-5.757000115e-10
-1.151257231e-11
-1.575952787e-11
-7.164227088e-13
-4.004322195e-13
-5.704293974e-13
-5.791026246e-13
-5.78843082e-13
-5.75548444e-13
-5.703934353e-13
-5.638055913e-13
-5.559148573e-13
-5.48267045e-13
-5.519398459e-13
-5.950583157e-13
-5.790014205e-13
-5.32667451e-13
-5.266441824e-13
-5.260488277e-13
-5.262513435e-13
-5.266577195e-13
-5.270848038e-13
-5.275038105e-13
-5.279216911e-13
-5.283366096e-13
-5.287462083e-13
-5.291436299e-13
-5.295274123e-13
-5.298905009e-13
-5.302275021e-13
-5.305280007e-13
-5.3078791e-13
-5.310069634e-13
-5.311840659e-13
-5.313312681e-13
-5.314500434e-13
-5.315439274e-13
-5.316149817e-13
-5.316568329e-13
-5.31673159e-13
-5.316642717e-13
-5.316412005e-13
-5.316088595e-13
-5.315708545e-13
-5.315367404e-13
-5.31511693e-13
-5.315055254e-13
-5.315221998e-13
-5.315554988e-13
-5.316039334e-13
-5.316650984e-13
-5.317340222e-13
-5.318071289e-13
-5.31881415e-13
-5.319641857e-13
-5.320801631e-13
-5.322569196e-13
-5.32370337e-13
-5.322451057e-13
-3.747879869e-08
-1.486794008e-09
-2.161172002e-11
-2.177636183e-11
1.957752423e-12
-2.385674382e-13
-5.665666401e-13
-5.802088453e-13
-5.824359161e-13
-5.808740165e-13
-5.770318631e-13
-5.713330799e-13
-5.638743742e-13
-5.570385716e-13
-5.630441836e-13
-6.006902699e-13
-5.906614908e-13
-5.394202423e-13
-5.306096636e-13
-5.282886518e-13
-5.258981411e-13
-5.253474367e-13
-5.258290044e-13
-5.263222067e-13
-5.268009862e-13
-5.272656872e-13
-5.277158528e-13
-5.281482331e-13
-5.285611537e-13
-5.289503984e-13
-5.29312444e-13
-5.296436033e-13
-5.299409107e-13
-5.302039062e-13
-5.304300425e-13
-5.30622928e-13
-5.307831345e-13
-5.309124807e-13
-5.310134002e-13
-5.31085269e-13
-5.311322296e-13
-5.311555081e-13
-5.311634579e-13
-5.31161411e-13
-5.311498317e-13
-5.31128642e-13
-5.310960477e-13
-5.310689416e-13
-5.310588415e-13
-5.310639075e-13
-5.310888289e-13
-5.311312765e-13
-5.311879179e-13
-5.31258027e-13
-5.313363037e-13
-5.314325044e-13
-5.315744577e-13
-5.31775732e-13
-5.319294491e-13
-5.319148511e-13
-1.038159065e-07
-8.884701379e-09
-3.209588684e-10
-2.642199578e-12
-1.387351304e-11
2.242205567e-13
-4.819442471e-13
-5.724769818e-13
-5.830609585e-13
-5.837850818e-13
-5.810088234e-13
-5.759437479e-13
-5.688960366e-13
-5.632790746e-13
-5.719464736e-13
-6.056935758e-13
-6.01491689e-13
-5.466353672e-13
-5.354007446e-13
-5.321838824e-13
-5.289865158e-13
-5.260745125e-13
-5.254356802e-13
-5.259382352e-13
-5.264507456e-13
-5.269443285e-13
-5.274186487e-13
-5.278721099e-13
-5.28302795e-13
-5.287079066e-13
-5.290849213e-13
-5.294311943e-13
-5.297442962e-13
-5.300231912e-13
-5.302667733e-13
-5.30475682e-13
-5.306503528e-13
-5.307927896e-13
-5.309052523e-13
-5.309898212e-13
-5.310504318e-13
-5.310898654e-13
-5.311132199e-13
-5.311244903e-13
-5.311261906e-13
-5.311221881e-13
-5.311124686e-13
-5.311050535e-13
-5.311040326e-13
-5.311063803e-13
-5.311207604e-13
-5.311494711e-13
-5.311938381e-13
-5.312510257e-13
-5.313213297e-13
-5.31416431e-13
-5.315580277e-13
-5.317524274e-13
-5.319051675e-13
-5.319327731e-13
1.427426047e-06
2.567587769e-08
-2.816446626e-09
-1.357617887e-10
-7.678023028e-11
-2.956200768e-12
-1.685829555e-12
-4.850877792e-13
-5.838330354e-13
-5.864618138e-13
-5.843674907e-13
-5.797233511e-13
-5.72941778e-13
-5.684576848e-13
-5.793641226e-13
-6.105641502e-13
-6.074948026e-13
-5.533057727e-13
-5.40451407e-13
-5.365483668e-13
-5.327003801e-13
-5.290187461e-13
-5.25951054e-13
-5.257412753e-13
-5.262616485e-13
-5.267785437e-13
-5.272745181e-13
-5.277475646e-13
-5.281959051e-13
-5.28616782e-13
-5.290078231e-13
-5.293667505e-13
-5.296915288e-13
-5.299810568e-13
-5.302344952e-13
-5.304521458e-13
-5.306347984e-13
-5.307840935e-13
-5.309024412e-13
-5.309925322e-13
-5.310582214e-13
-5.311028135e-13
-5.311305564e-13
-5.311454165e-13
-5.311503875e-13
-5.311502085e-13
-5.311478396e-13
-5.311469831e-13
-5.311505317e-13
-5.311579784e-13
-5.311743649e-13
-5.312001249e-13
-5.312377479e-13
-5.312867347e-13
-5.313517936e-13
-5.314446091e-13
-5.31585292e-13
-5.317708952e-13
-5.319226494e-13
-5.319822273e-13
8.277139386e-07
6.514185795e-09
-1.691828248e-08
-1.20249076e-09
-4.347714025e-11
-1.931190726e-10
-8.254688196e-12
2.373093774e-12
-5.435562149e-13
-5.879709541e-13
-5.87996792e-13
-5.837147339e-13
-5.77093346e-13
-5.736435894e-13
-5.862867998e-13
-6.157457662e-13
-6.112605246e-13
-5.593933182e-13
-5.454444051e-13
-5.410526405e-13
-5.367068566e-13
-5.323923794e-13
-5.286104858e-13
-5.257098515e-13
-5.261581721e-13
-5.266832971e-13
-5.271901623e-13
-5.276744584e-13
-5.281342341e-13
-5.285659833e-13
-5.289673049e-13
-5.293357778e-13
-5.296693006e-13
-5.299669566e-13
-5.302280181e-13
-5.304523619e-13
-5.306407609e-13
-5.307947308e-13
-5.309170744e-13
-5.310103735e-13
-5.310791274e-13
-5.311263476e-13
-5.311560928e-13
-5.311727602e-13
-5.311797035e-13
-5.311812957e-13
-5.31180538e-13
-5.311796655e-13
-5.311840026e-13
-5.311941355e-13
-5.312117502e-13
-5.312374017e-13
-5.31273844e-13
-5.313213504e-13
-5.313872092e-13
-5.314792735e-13
-5.316186737e-13
-5.317929854e-13
-5.319408754e-13
-5.320136418e-13
8.734196422e-07
6.813974178e-08
-9.594935025e-08
-7.163864738e-09
-2.489041264e-10
-4.150200893e-12
-1.790932922e-11
-6.294997069e-13
-1.481275723e-13
-5.844716174e-13
-5.917986537e-13
-5.881880588e-13
-5.818694323e-13
-5.794233623e-13
-5.933588684e-13
-6.216025819e-13
-6.151013598e-13
-5.654333269e-13
-5.504664671e-13
-5.456512687e-13
-5.409269719e-13
-5.360510118e-13
-5.31651415e-13
-5.27915885e-13
-5.261952485e-13
-5.266606332e-13
-5.271667101e-13
-5.276527481e-13
-5.281155502e-13
-5.285517555e-13
-5.289581356e-13
-5.293322067e-13
-5.296710137e-13
-5.299741745e-13
-5.302401797e-13
-5.304687205e-13
-5.306608714e-13
-5.308175506e-13
-5.309428169e-13
-5.310382931e-13
-5.311093846e-13
-5.311584049e-13
-5.311892606e-13
-5.312070566e-13
-5.312143264e-13
-5.312163216e-13
-5.312159678e-13
-5.312149663e-13
-5.312190716e-13
-5.312288956e-13
-5.312457684e-13
-5.312707798e-13
-5.313066789e-13
-5.313532549e-13
-5.314204296e-13
-5.315139927e-13
-5.31652334e-13
-5.318176739e-13
-5.319607542e-13
-5.320502391e-13
7.717591317e-07
-2.726397899e-07
-3.038886355e-07
-2.533618485e-08
-6.493355037e-10
1.853752296e-11
-1.651371858e-10
-5.279352739e-12
4.607898329e-13
-5.680585184e-13
-5.937049384e-13
-5.921442564e-13
-5.864440216e-13
-5.845445325e-13
-5.960918575e-13
-6.276167112e-13
-6.192952689e-13
-5.716303257e-13
-5.556680425e-13
-5.504157925e-13
-5.453821754e-13
-5.400102249e-13
-5.35013719e-13
-5.306425063e-13
-5.270203367e-13
-5.267075586e-13
-5.271895543e-13
-5.276728093e-13
-5.281350429e-13
-5.285727855e-13
-5.28981652e-13
-5.293585513e-13
-5.297000352e-13
-5.300052969e-13
-5.302716414e-13
-5.305005275e-13
-5.306936496e-13
-5.308519064e-13
-5.309789118e-13
-5.310757972e-13
-5.311476582e-13
-5.311972119e-13
-5.312285319e-13
-5.312464305e-13
-5.312529563e-13
-5.312545995e-13
-5.312538325e-13
-5.312529003e-13
-5.312562994e-13
-5.312646059e-13
-5.312799085e-13
-5.313035306e-13
-5.313390493e-13
-5.313854711e-13
-5.314523163e-13
-5.315469059e-13
-5.316833067e-13
-5.318412817e-13
-5.319784525e-13
-5.320560493e-13
-2.612125187e-06
-4.15486971e-07
-3.662723201e-07
-7.695070385e-08
-9.030878744e-10
2.352232587e-10
6.16799965e-12
-1.4952993e-11
-1.829386785e-13
-5.521170465e-13
-5.8706282e-13
-5.931055833e-13
-5.896104856e-13
-5.888703577e-13
-5.988104977e-13
-6.339158695e-13
-6.237156684e-13
-5.776061037e-13
-5.608484384e-13
-5.552000458e-13
-5.499379216e-13
-5.441664416e-13
-5.386370746e-13
-5.33689111e-13
-5.294316463e-13
-5.268357853e-13
-5.272446339e-13
-5.27721269e-13
-5.281793905e-13
-5.286144287e-13
-5.290220757e-13
-5.293987149e-13
-5.297414734e-13
-5.300479744e-13
-5.303165246e-13
-5.305479404e-13
-5.307425388e-13
-5.309020281e-13
-5.310289738e-13
-5.311264085e-13
-5.311975007e-13
-5.312461682e-13
-5.312762379e-13
-5.312920145e-13
-5.312976678e-13
-5.312978819e-13
-5.312954124e-13
-5.312930947e-13
-5.312939108e-13
-5.312999242e-13
-5.313137108e-13
-5.313354337e-13
-5.313688968e-13
-5.314150459e-13
-5.31481994e-13
-5.315770103e-13
-5.317094857e-13
-5.318593474e-13
-5.319883464e-13
-5.320028376e-13
-4.814140343e-06
-1.096419734e-06
-5.109937658e-07
-3.695822611e-07
-2.56281284e-10
1.49154516e-09
8.417874834e-11
1.638641554e-11
2.593347895e-12
-5.705039212e-13
-5.863813988e-13
-5.92179837e-13
-5.908844481e-13
-5.916820865e-13
-6.01447371e-13
-6.399687205e-13
-6.278952097e-13
-5.827032752e-13
-5.655492001e-13
-5.596485688e-13
-5.54271339e-13
-5.482470111e-13
-5.423170383e-13
-5.368779637e-13
-5.320718289e-13
-5.280338753e-13
-5.273608004e-13
-5.277988323e-13
-5.282481344e-13
-5.286768733e-13
-5.290800424e-13
-5.294534825e-13
-5.297941796e-13
-5.300989936e-13
-5.303673641e-13
-5.305987033e-13
-5.30793524e-13
-5.309537433e-13
-5.310804909e-13
-5.311778751e-13
-5.312477313e-13
-5.312951691e-13
-5.313242757e-13
-5.313388252e-13
-5.313439516e-13
-5.313419216e-13
-5.313373128e-13
-5.313329776e-13
-5.313311151e-13
-5.313348313e-13
-5.313468448e-13
-5.313668229e-13
-5.313983773e-13
-5.31443492e-13
-5.315101688e-13
-5.316046963e-13
-5.317322327e-13
-5.318734708e-13
-5.319925894e-13
-5.3192714e-13
-6.159231031e-06
-1.938172269e-06
-6.523312932e-07
-1.630673348e-06
7.157743197e-09
4.737698711e-09
3.514912588e-10
5.192944128e-11
1.052506665e-11
-5.507909483e-13
-5.727346326e-13
-5.849627664e-13
-5.891302755e-13
-5.923493278e-13
-6.036139953e-13
-6.449491407e-13
-6.311309305e-13
-5.86144725e-13
-5.691145388e-13
-5.632164155e-13
-5.578831578e-13