/*--------------------------------*- C++ -*----------------------------------*\
  =========                 |
  \\      /  F ield         | OpenFOAM: The Open Source CFD Toolbox
   \\    /   O peration     | Website:  https://openfoam.org
    \\  /    A nd           | Version:  10
     \\/     M anipulation  |
\*---------------------------------------------------------------------------*/
FoamFile
{
    format      ascii;
    class       volScalarField;
    location    "0.02499901733";
    object      ddt0(rho,CH3O);
}
// * * * * * * * * * * * * * * * * * * * * * * * * * * * * * * * * * * * * * //

dimensions      [1 -3 -1 0 0 0 0];

internalField   nonuniform List<scalar> 
5170
(
3.553882278e-05
3.553383078e-05
3.592523686e-05
2.272288481e-05
-1.5777777e-07
3.512840376e-05
3.571313555e-05
2.151894182e-05
-2.553460295e-05
-3.129144825e-05
-1.720703429e-05
-2.712728462e-05
-3.887628912e-05
-3.343847437e-05
2.393542815e-05
-3.200113789e-05
-3.284611193e-05
-3.122059908e-05
-1.460983861e-05
3.885962132e-05
-3.139668214e-05
-3.151679916e-05
-6.577659873e-06
2.447358402e-05
3.527686161e-05
-8.194513483e-06
4.447445766e-06
2.409633795e-05
3.811044288e-05
3.482614917e-05
1.812289283e-05
3.022470897e-05
3.837954879e-05
2.160460734e-05
3.51469835e-05
2.824799406e-05
3.36419668e-05
9.682344826e-06
3.148452125e-06
3.225677934e-05
1.846535627e-05
3.020821991e-06
-1.264150347e-05
-1.447671749e-05
1.934717132e-05
-1.64872192e-05
-2.740755519e-05
-2.602312579e-05
-2.633361708e-05
-5.960601039e-06
-2.343639201e-05
-8.111553051e-06
8.750288409e-06
5.283783517e-06
-1.991458182e-05
3.417484448e-06
1.309759899e-05
2.474118561e-05
2.024762844e-05
-1.943063978e-05
1.785489309e-05
1.781006195e-05
1.496041126e-06
9.462622288e-06
-2.165129846e-06
4.436847331e-06
-5.98836702e-06
-1.514613422e-05
-8.255262209e-06
1.70935508e-05
-1.581518818e-05
-4.325301125e-06
7.994809003e-06
-2.842972354e-06
-1.273664151e-06
2.560908986e-05
1.450023089e-05
3.217838825e-06
1.633160572e-05
-3.088921857e-06
-2.77199368e-05
-1.749621823e-05
-7.517900329e-06
-2.293619792e-05
1.318283577e-05
2.499908897e-05
1.485288517e-05
6.346879679e-06
2.441035524e-05
-1.58967589e-05
-5.378367846e-06
4.183700928e-06
1.075595624e-05
-1.015573398e-05
2.542094395e-05
-3.102852616e-06
-9.075093291e-06
8.125865176e-06
-2.563332819e-06
-7.750294206e-07
-1.307474055e-15
-1.347027585e-15
-1.282024654e-15
-1.363110523e-15
-1.685903357e-15
-1.840832334e-15
-1.692433855e-15
-1.697418614e-15
-1.665072389e-15
-1.780164352e-15
-3.41596764e-16
-5.868138323e-16
-5.534300647e-16
-5.192413837e-16
-3.163819892e-16
9.653821068e-17
-4.628937316e-17
-6.086130964e-17
-5.397373612e-17
-9.470637218e-17
-5.194961225e-15
-1.178906887e-16
-6.796150013e-17
-1.442771789e-15
1.629166333e-13
-4.927633572e-13
1.187405155e-13
1.60567022e-13
1.787809963e-13
8.167511583e-14
1.531363081e-13
-1.302162826e-12
1.475970242e-13
-4.827486532e-14
7.466437313e-15
-4.534955554e-15
-2.111547558e-13
-3.066325219e-14
-1.081513558e-14
2.070859456e-16
-1.488663848e-14
-8.271202541e-14
-7.265430321e-13
2.25801985e-12
3.071304263e-13
-8.729856226e-13
-1.168802405e-13
-6.097822117e-13
1.188421825e-12
-7.238221969e-13
-3.039008659e-12
-1.634039251e-12
-7.980303161e-13
-3.085206603e-13
3.088126156e-12
3.748949645e-13
-1.032009518e-12
-3.394581307e-12
8.885442736e-13
1.687963771e-13
-5.009457477e-14
4.012365363e-12
1.863028294e-12
-8.192432496e-13
3.316132429e-12
-4.976487294e-13
-3.131045988e-13
-2.140211513e-12
8.910509395e-12
1.39240903e-13
-5.618329588e-12
1.097581113e-13
-1.883436514e-12
-1.270184202e-11
1.062823836e-11
1.258150066e-11
2.392623048e-11
2.904191442e-11
3.454537588e-11
-8.858326219e-13
-1.568703732e-11
7.712191155e-11
-1.310628702e-10
5.638415651e-11
1.599586548e-11
1.281236638e-10
-1.531879853e-10
-3.607326594e-11
1.197865799e-11
1.217798343e-11
7.170624336e-10
-1.748695839e-10
9.906366848e-10
7.178154509e-11
-4.821801738e-12
-3.828789079e-08
1.90969649e-09
-2.291491791e-09
9.778996363e-10
-1.445519996e-11
1.104552754e-05
1.561802848e-06
-1.174060342e-06
-3.370536669e-05
-8.488945613e-05
-5.305406444e-06
1.746111615e-06
2.586214093e-06
-2.153899358e-05
4.919193718e-05
1.565617692e-06
2.541019694e-06
0.0003830427582
5.444788167e-06
5.226613308e-05
-1.176217045e-06
4.700014587e-07
5.977347346e-05
1.367081636e-05
1.865856637e-05
1.637018417e-06
-1.540185017e-06
-5.524712211e-05
2.082489862e-06
-8.293041749e-06
2.014573143e-06
-4.572444357e-07
-5.643978705e-05
5.121569502e-06
2.298676136e-05
2.901628999e-06
5.799958014e-06
-5.532037402e-06
3.437747298e-06
1.898603457e-06
-2.508260501e-06
-0.0004242168431
1.354959746e-05
4.748122846e-06
-5.306429402e-05
6.76508862e-06
1.887159756e-05
1.816478398e-05
1.824170602e-05
4.915576132e-05
4.685456476e-06
1.161913185e-05
8.529427905e-06
-6.636153127e-06
-5.772730479e-06
4.428171266e-06
4.009668677e-06
2.163315723e-06
-9.588055568e-06
-2.280549997e-05
1.548602639e-06
4.123733974e-06
2.812938499e-06
-4.667352606e-06
-1.230881551e-05
7.340597006e-06
5.993785773e-06
4.261897892e-06
3.706591652e-06
7.216464117e-06
-2.742053085e-08
3.233105146e-06
5.66777034e-06
6.650376475e-06
3.852969729e-06
6.951570406e-07
-2.90800725e-07
7.684587773e-07
2.66943214e-06
3.935271199e-06
-9.422648919e-07
-3.638415375e-06
-3.725596069e-06
-1.177132679e-05
-6.086736757e-06
-2.991348966e-06
-4.687512897e-06
-6.946084764e-06
-6.892810601e-06
-3.629115907e-06
-1.524773987e-05
-1.939809998e-05
-1.362657411e-05
-1.782618397e-05
-1.167612706e-05
-1.949209533e-05
-1.874774439e-05
-1.367559977e-05
-2.427298946e-06
8.487284111e-06
-1.904591551e-05
-1.952683701e-05
-1.802408338e-05
-1.306298318e-05
-5.423912781e-06
-2.622837115e-05
-2.987420913e-05
-3.489327358e-05
-3.727443283e-05
-3.565799771e-05
-3.82020901e-05
-4.160637734e-05
-4.724727087e-05
-5.354094149e-05
-5.813710182e-05
-3.344277392e-05
-3.501968593e-05
-3.824315394e-05
-4.183880317e-05
-4.430518841e-05
-1.227219745e-05
-1.146337891e-05
-1.180792384e-05
-9.008594042e-06
-4.704889261e-06
1.422947734e-05
1.542866067e-05
1.811912972e-05
2.301609715e-05
2.784931857e-05
2.591072066e-05
2.662601633e-05
2.80461385e-05
2.979024134e-05
3.283861036e-05
2.110256613e-05
2.127052983e-05
2.164041925e-05
2.206512929e-05
2.257465274e-05
1.284636127e-05
1.284485309e-05
1.274084641e-05
1.246431766e-05
1.240661566e-05
6.466992197e-06
6.434112689e-06
6.299411019e-06
5.95043356e-06
5.777279959e-06
3.407894644e-06
3.40432818e-06
3.298113383e-06
3.127801257e-06
2.822490485e-06
8.40977127e-07
-2.258345503e-07
1.097352233e-06
1.140072359e-06
1.165614616e-06
4.407354079e-07
4.380195019e-07
4.684234127e-07
5.061831855e-07
4.389150951e-07
1.73267855e-07
1.654150845e-07
1.601630905e-07
1.446548131e-07
1.591013138e-07
2.056830167e-08
1.945834187e-08
1.519298421e-08
3.508744217e-09
-4.487518607e-08
-3.541248827e-08
-3.643255917e-08
-3.87686255e-08
-4.309375116e-08
-5.120402622e-08
-5.940389648e-08
-6.030397899e-08
-6.268856086e-08
-6.781673137e-08
-7.012069051e-08
-4.976179763e-08
-5.066762806e-08
-5.245726814e-08
-5.476038887e-08
-5.84089091e-08
-1.802457971e-08
-1.885445343e-08
-2.053573811e-08
-2.271145898e-08
-2.617924066e-08
1.929181826e-08
1.911316157e-08
1.785031867e-08
1.39870342e-08
2.180999593e-09
3.825820845e-08
5.746741975e-08
5.950438571e-08
5.957378743e-08
6.045849283e-08
5.869200453e-08
4.795514447e-08
4.690866784e-08
5.438779536e-08
5.477566444e-08
3.761294196e-08
3.785761542e-08
3.839159622e-08
3.921278412e-08
3.985259381e-08
1.700615874e-08
1.749509745e-08
1.84350345e-08
1.952126217e-08
2.316542715e-08
8.675217672e-09
7.244390143e-09
4.516226167e-09
1.302148823e-09
1.41780722e-09
-7.524632638e-09
-8.510358193e-09
-8.056164342e-09
1.629630286e-08
-1.802533677e-08
2.52454373e-08
3.047037887e-08
2.975149594e-08
4.290091723e-08
2.525188523e-08
1.527677194e-08
6.011453136e-09
-2.662265067e-08
-2.121306096e-08
-3.448726772e-08
-8.448403487e-09
-8.432097761e-09
-7.775428232e-09
-7.204146243e-09
-6.441621973e-09
-5.281017737e-09
-5.029892746e-09
-4.484013481e-09
-4.550032937e-09
-3.758839745e-09
-1.710983521e-08
-2.922015334e-09
2.002230006e-08
1.288046725e-08
7.443389899e-09
2.264944972e-08
1.769519263e-08
1.323102497e-08
2.04849544e-08
2.553493263e-08
-3.175071772e-08
-3.107920244e-08
-3.003225471e-08
-2.970407578e-08
-2.911237136e-08
-4.332732606e-08
-4.267035309e-08
-4.135656681e-08
-3.95928047e-08
-3.798754018e-08
-4.667204333e-08
-4.635084107e-08
-4.302794145e-08
-4.27308722e-08
-4.086972888e-08
-4.109921565e-08
-4.051845688e-08
-3.932152102e-08
-3.76392816e-08
-3.527350458e-08
-4.392750445e-08
-4.297568605e-08
-4.109207311e-08
-3.861454307e-08
-3.483348739e-08
-5.068608384e-08
-4.976355543e-08
-4.786310495e-08
-4.520523645e-08
-4.17795373e-08
-6.479878474e-08
-6.374119709e-08
-6.159449816e-08
-5.854729281e-08
-5.48633155e-08
-8.148742664e-08
-8.053099813e-08
-7.87844386e-08
-7.700553892e-08
-7.423439297e-08
-1.131637537e-07
-1.117771204e-07
-1.088525563e-07
-1.045805669e-07
-9.974046003e-08
-1.351870232e-07
-1.335681181e-07
-1.301188322e-07
-1.251266838e-07
-1.1894845e-07
-1.549662527e-07
-1.533987309e-07
-1.500649887e-07
-1.450933801e-07
-1.390395848e-07
-1.729155887e-07
-1.708966405e-07
-1.662991441e-07
-1.586255254e-07
-1.485304871e-07
-1.87544202e-07
-1.899136602e-07
-1.845016155e-07
-1.83406524e-07
-1.771574568e-07
-2.301997478e-07
-2.278570312e-07
-2.23158767e-07
-2.163792212e-07
-2.090363583e-07
-2.731505681e-07
-2.700889494e-07
-2.614220222e-07
-2.516178441e-07
-3.161630136e-07
-2.566241099e-07
-2.533379001e-07
-2.477093739e-07
-2.422851296e-07
-2.407515952e-07
-2.548792399e-07
-2.511421329e-07
-2.444389091e-07
-2.373637193e-07
-2.320849985e-07
-2.037306421e-07
-1.996035519e-07
-1.932079129e-07
-1.903110618e-07
-1.820234978e-07
-3.012003539e-07
-2.994376519e-07
-2.965671189e-07
-2.926075839e-07
-2.883231077e-07
0.0001640527813
-8.908644443e-05
-8.96487941e-05
-5.99687578e-06
2.589396751e-05
-2.632488328e-05
6.438925497e-05
-0.0001207947602
4.356559559e-05
1.695149232e-05
-1.415130158e-05
-8.71131381e-06
7.924609134e-06
2.36307169e-06
4.230993333e-06
-6.813292342e-06
-1.93534801e-06
-9.74487041e-06
1.273907879e-05
1.360936978e-06
-3.126984145e-05
-5.724815188e-05
-4.279771952e-05
7.606511687e-07
3.290427783e-05
3.475225059e-05
2.27488188e-05
1.2588345e-05
5.808903003e-06
2.630327047e-06
1.104881792e-06
4.065847486e-07
1.486677281e-07
-3.526506126e-08
-5.399794133e-08
-7.462668243e-08
-6.303334589e-08
-3.004679468e-08
5.769814322e-09
5.769107938e-08
5.303517372e-08
5.052997755e-08
2.388536543e-08
-4.985609515e-09
1.608257083e-08
-9.219867914e-10
-4.387685768e-08
-5.304414872e-09
-3.694806879e-09
-2.099004622e-09
-5.305493185e-09
-2.834055793e-08
-3.695748252e-08
-3.505829792e-08
-3.340666177e-08
-3.158003695e-08
-3.893428571e-08
-5.189737115e-08
-6.050338289e-08
-9.747942194e-08
-1.137126756e-07
-1.334819923e-07
-1.385023164e-07
-1.723571313e-07
-2.041205297e-07
-2.563852892e-07
-2.324540647e-07
-2.149555479e-07
-1.75748272e-07
-3.001783548e-07
-2.38668156e-05
7.769227883e-07
-3.084755105e-08
-1.245865627e-08
-2.087881402e-09
5.255111391e-07
4.976327464e-06
-1.406497831e-08
6.443138526e-09
-4.620544436e-09
-4.438112966e-06
-1.439800674e-05
-1.887035412e-06
-1.080291834e-07
9.751414182e-09
8.481666421e-05
5.273702632e-06
9.423963805e-07
-4.663100202e-08
-5.748631636e-08
0.0002381206427
1.948772736e-05
1.512598896e-06
-1.056767598e-07
-6.372647838e-09
-0.0007944073478
-1.44135193e-05
1.531107096e-06
3.624143394e-07
-2.036882521e-08
0.0002377278518
1.622011453e-05
4.327017436e-08
-2.316123067e-08
2.778875454e-08
0.0002583081187
-7.875377174e-06
2.476544394e-06
3.618617604e-07
8.854529609e-08
1.602902644e-05
-1.053868623e-06
-4.387449463e-07
3.584108328e-07
1.085175095e-07
3.49204204e-05
4.28959971e-07
-2.259998099e-07
-4.344879185e-07
-7.025011116e-08
-8.706950013e-07
2.425508165e-06
1.342363443e-06
-6.436072662e-07
-7.200163442e-08
-1.33102402e-06
1.400515412e-06
-2.087969188e-06
-8.783498622e-07
-1.417318798e-07
9.487091683e-06
1.211751253e-05
2.144947093e-06
2.233426803e-07
-9.92883117e-08
1.838626454e-06
1.014742626e-05
9.546482852e-09
-2.915014357e-07
-1.821841397e-07
1.269217881e-06
9.709287035e-06
-1.846274404e-06
-6.303585471e-07
-8.337059303e-07
-5.237607453e-09
3.998441672e-06
-4.603836432e-06
-2.045723154e-06
-6.109677216e-07
-9.056920708e-06
-3.546402934e-05
-5.643257975e-06
-6.084526311e-06
1.940636578e-06
-4.051928521e-06
-3.691515634e-05
-9.249904897e-06
-1.170327855e-05
8.128360505e-06
1.501908054e-05
7.930435379e-06
-1.358669762e-05
-4.701929278e-05
-1.497603733e-05
1.533028701e-05
3.075557711e-05
2.03761482e-05
-3.974511009e-05
-5.441166793e-05
-1.715662574e-05
4.321329456e-06
2.115981051e-05
-0.00012101279
-0.0005624742856
-4.804057312e-05
-1.028472828e-05
9.430304899e-05
0.0003407433062
0.0007519259308
-3.654221284e-05
4.696671956e-06
0.0001116610418
0.00032321621
0.0006137844166
8.626128148e-06
3.998576217e-05
9.853665467e-05
0.0001796310329
0.000252609265
3.977280683e-05
5.542403578e-05
7.419549071e-05
9.063037654e-05
9.733226584e-05
3.773592079e-05
4.185046945e-05
4.412019025e-05
4.345572745e-05
3.939961213e-05
2.353249126e-05
2.36303596e-05
2.127766462e-05
2.03797195e-05
2.048239803e-05
1.285333407e-05
1.231513175e-05
1.03072259e-05
4.697509673e-06
7.454343276e-06
5.789299456e-06
5.959462958e-06
5.277096263e-06
3.885388985e-06
2.826589923e-06
2.538035679e-06
2.184304118e-06
1.971426856e-06
1.765204725e-06
1.347217288e-06
1.090920124e-06
9.429504712e-07
7.589767254e-07
4.322237712e-07
2.767014568e-07
3.917873845e-07
5.464467284e-07
4.983717739e-07
2.73594931e-07
1.87872872e-07
1.466505112e-07
1.199718236e-07
5.975512761e-08
5.895009659e-09
-1.298653671e-08
6.370020089e-10
-5.84393726e-09
-1.837347767e-08
-3.640053512e-08
-6.473568361e-08
-5.842103491e-08
-6.909087096e-08
-9.41026437e-08
-9.384022296e-08
-1.054040211e-07
-8.097074828e-08
-8.900050575e-08
-9.907115508e-08
-1.1044051e-07
-1.244974683e-07
-7.380244943e-08
-7.922456258e-08
-8.815595378e-08
-9.739568041e-08
-1.094573355e-07
-3.749980009e-08
-4.947842075e-08
-5.636152146e-08
-6.208811146e-08
-6.54232466e-08
1.945513589e-08
1.496545287e-08
-7.694547497e-09
-9.235839136e-09
-6.421858918e-09
3.529179434e-08
3.917758092e-08
3.989185987e-08
4.186386139e-08
3.862160031e-08
5.501372092e-08
5.618755114e-08
6.202207201e-08
6.253215177e-08
6.592423539e-08
4.766599333e-08
4.867941269e-08
5.348519463e-08
7.394171041e-08
5.253055316e-08
2.766742225e-08
2.483518149e-08
2.127194108e-08
2.16423325e-08
2.585546523e-08
-1.152556739e-08
-5.902049885e-09
2.77892611e-10
-1.38435765e-09
4.733511873e-09
2.387585731e-08
2.717586849e-08
4.055665466e-08
-2.372878653e-08
-2.667325172e-08
-3.349547532e-08
-1.650204917e-08
-3.182632916e-08
8.200595752e-09
-9.451179995e-10
-5.599780681e-10
4.699618898e-10
-1.081253017e-09
-6.749301011e-09
-7.242760305e-09
-5.485148656e-09
-4.971192003e-09
-5.670435746e-09
-7.226064512e-09
1.143192801e-08
-8.756959748e-09
-9.69566895e-09
1.2287046e-08
-4.968510276e-09
9.51718071e-09
-3.385030104e-09
1.726240917e-09
1.051534076e-08
-1.73059693e-08
-2.101890822e-08
-2.167992304e-08
-2.614795056e-08
-2.342620978e-08
-2.274494282e-08
-2.248643092e-08
-2.635142276e-08
-2.370851144e-08
-2.110406739e-08
-1.791578579e-08
-3.889347717e-09
-3.373690496e-08
-2.96539014e-08
-2.516202374e-08
-2.261944552e-08
-1.144596509e-08
-2.825265445e-08
-2.36187989e-08
-1.83346938e-08
-7.897974555e-09
-7.740144314e-09
-2.869793389e-08
-2.272264703e-08
-1.563067357e-08
-8.48912655e-09
-3.444756904e-09
-2.777478525e-08
-2.030411601e-08
-1.393033239e-08
-9.075791584e-09
-4.343013591e-09
-3.479614111e-08
-2.688251257e-08
-1.958759396e-08
-1.321475984e-08
-8.61852681e-09
-4.54681624e-08
-3.672077556e-08
-2.96315607e-08
-2.717860926e-08
-2.26952058e-08
-4.240621946e-08
-6.18596115e-08
-5.375010806e-08
-4.412013455e-08
-3.481830825e-08
-8.958134064e-08
-7.863645925e-08
-6.340870892e-08
-4.998274584e-08
-3.708246368e-08
-1.062308917e-07
-9.207842876e-08
-7.555145307e-08
-5.830260985e-08
-4.902446667e-08
-1.223945011e-07
-1.10411409e-07
-8.48867848e-08
-5.901900123e-08
-6.53555721e-08
-1.267974893e-07
-9.68138688e-08
-9.541987233e-08
-9.394480865e-08
-8.11707605e-08
-1.617713108e-07
-1.470760213e-07
-1.322503601e-07
-1.161384625e-07
-1.000253258e-07
-1.929626414e-07
-1.76750678e-07
-1.575640481e-07
-1.313607407e-07
-1.813979676e-07
-1.655765268e-07
-1.323465969e-07
-1.091760261e-07
-8.547282553e-08
-5.830071768e-08
-2.055213113e-07
-1.733716546e-07
-1.339446533e-07
-9.238320272e-08
-4.490310163e-08
-1.878623118e-07
-1.458239916e-07
-9.65672421e-08
-2.83525444e-08
1.760669466e-08
-1.296978721e-07
-1.02112853e-07
-2.402596521e-07
-1.560034541e-07
-1.639384888e-07
-2.590377085e-07
-2.586340366e-07
-2.762065512e-07
-3.150136902e-07
-3.15773296e-07
-3.036484047e-09
-2.863793704e-08
-1.033243848e-08
-1.072511927e-08
-1.116478267e-08
-3.972684641e-09
-3.48541412e-09
-3.480928072e-09
-3.477750243e-09
-3.471265115e-09
-3.468095576e-09
-3.471183487e-09
-3.467153866e-09
-3.459078265e-09
-3.47325509e-09
-3.437569036e-09
-3.442634489e-09
-3.462776226e-09
-3.439783473e-09
-3.44182292e-09
-3.441107858e-09
-3.438866645e-09
-3.436835796e-09
-3.43413724e-09
-3.43328647e-09
-3.431373324e-09
-3.42982015e-09
-3.429176775e-09
-3.428162031e-09
-3.42819869e-09
-3.428014057e-09
-3.427404303e-09
-3.426953459e-09
-3.426696839e-09
-3.425488003e-09
-3.424497944e-09
-3.423754299e-09
-3.422235113e-09
-3.420624159e-09
-3.419192862e-09
-3.417791794e-09
-3.416316166e-09
-3.414931723e-09
-3.413513815e-09
-3.412334345e-09
-3.410861226e-09
-3.409629599e-09
-3.408287422e-09
-3.406907202e-09
-3.405617374e-09
-3.404425436e-09
-3.403116971e-09
-3.40170538e-09
-3.400410231e-09
-3.398948472e-09
-3.397595512e-09
-3.406059296e-09
-4.281116541e-09
-1.098318713e-08
-1.095926559e-08
-2.956132594e-08
-3.556579253e-07
-7.717467255e-10
-1.108810973e-08
-1.187274045e-08
-2.26810591e-09
-1.193895247e-08
-1.131768251e-08
-1.137691475e-08
-1.164203248e-08
-1.167690121e-08
-1.128399393e-08
-1.146463627e-08
-1.201159095e-08
-1.16266931e-08
-7.828250903e-09
-1.105504699e-08
-1.216517547e-08
-1.031163573e-08
-1.102932879e-08
-1.103997697e-08
-1.067355344e-08
-1.033465478e-08
-9.821287819e-09
-9.721378721e-09
-9.356994487e-09
-9.030348062e-09
-8.816687476e-09
-8.408607881e-09
-8.184823562e-09
-7.902237949e-09
-7.541675943e-09
-7.266478531e-09
-7.088738658e-09
-6.73088916e-09
-6.463103397e-09
-6.298328651e-09
-5.994154785e-09
-5.671754969e-09
-5.389593009e-09
-5.113047958e-09
-4.817383537e-09
-4.541727487e-09
-4.257362251e-09
-4.027977097e-09
-3.728791262e-09
-3.485723283e-09
-3.216357409e-09
-2.937761683e-09
-2.68031178e-09
-2.44634822e-09
-2.186118746e-09
-1.902423609e-09
-1.646462521e-09
-1.351562488e-09
-1.070164515e-09
-7.050889462e-10
-2.719714348e-09
-1.085752285e-08
3.698993904e-10
-1.111029762e-07
8.448543056e-07
-4.378983564e-08
4.898612745e-09
-1.938495152e-09
-1.205940556e-08
-1.96013629e-09
-8.01544644e-09
-1.220776504e-08
-1.137160966e-08
-1.145478101e-08
-1.195323788e-08
-1.114334935e-08
-1.108693413e-08
-1.16838668e-08
2.073540862e-10
-2.068148324e-09
-1.161526146e-08
-9.432032194e-09
-9.079499829e-09
-8.919520213e-09
-8.449547877e-09
-7.941830599e-09
-7.386802646e-09
-7.023149257e-09
-6.590205855e-09
-6.17568222e-09
-5.838446335e-09
-5.449168708e-09
-5.149621608e-09
-4.834829278e-09
-4.515268108e-09
-4.234307001e-09
-4.000639676e-09
-3.704355432e-09
-3.456234842e-09
-3.263417232e-09
-3.015600816e-09
-2.750674965e-09
-2.503441583e-09
-2.277750891e-09
-2.022711623e-09
-1.796932532e-09
-1.57520371e-09
-1.377093071e-09
-1.139898723e-09
-9.385654883e-10
-7.249807828e-10
-5.0290456e-10
-2.926843196e-10
-1.011707599e-10
1.026441733e-10
3.338270071e-10
5.321599017e-10
4.99425404e-10
4.469189279e-10
5.056077637e-10
-3.992408594e-09
-1.17250587e-08
-6.833375693e-09
-2.772145963e-07
-1.337330969e-07
2.777450624e-08
1.500026954e-09
1.538420138e-09
-1.217843606e-08
-8.347656356e-10
1.629201582e-10
-2.558066867e-09
-7.26510743e-09
-1.183878938e-08
-1.194893125e-08
-1.013130119e-08
-9.109140639e-09
-1.21326984e-08
2.076699518e-10
-4.026870595e-09
-3.934683964e-09
-5.128265348e-10
-1.818692405e-09
-2.516911116e-09
-3.364010581e-09
-4.250582185e-09
-5.102945974e-09
-5.844747443e-09
-6.539582571e-09
-7.181299459e-09
-7.756290756e-09
-8.301243332e-09
-8.792990773e-09
-9.252252424e-09
-9.68326364e-09
-1.00798872e-08
-1.043624964e-08
-1.07894998e-08
-1.110476666e-08
-1.139053654e-08
-1.167158499e-08
-1.194632381e-08
-1.220444211e-08
-1.2367565e-08
-1.227400149e-08
-1.219037083e-08
-1.210892084e-08
-1.203303768e-08
-1.195447425e-08
-1.188203158e-08
-1.180829703e-08
-1.173470125e-08
-1.166284048e-08
-1.159305471e-08
-1.152316331e-08
-1.144783123e-08
-1.144668169e-08
-1.152465744e-08
-1.156232908e-08
-1.142748505e-08
-1.229875862e-08
-1.085133736e-09
-9.017895671e-09
-1.568160868e-07
-7.834953314e-07
-1.402694523e-06
3.408013494e-08
2.191885168e-08
-2.173235836e-09
-4.097367862e-09
-5.932016567e-09
-9.312593525e-09
-1.12819276e-08
-4.251011018e-10
-3.199761045e-09
-5.423967226e-09
-5.055955553e-09
-1.293727256e-09
-8.974656154e-09
-4.768051306e-09
-6.347256743e-09
-8.789426697e-09
-2.617279101e-09
3.499004312e-11
-2.075661077e-10
-1.198576343e-09
-2.12588166e-09
-2.959771468e-09
-3.717673938e-09
-4.406077278e-09
-5.029585043e-09
-5.601479513e-09
-6.123306581e-09
-6.596810399e-09
-6.248340754e-09
-5.843167703e-09
-5.473025689e-09
-5.125030759e-09
-4.806974234e-09
-4.513061784e-09
-4.236977257e-09
-3.976788886e-09
-3.734673956e-09
-3.512787894e-09
-3.299293989e-09
-3.103642206e-09
-2.918000093e-09
-2.745111939e-09
-2.577426697e-09
-2.42032725e-09
-2.266000981e-09
-2.11549259e-09
-1.969570923e-09
-1.825763433e-09
-1.682512273e-09
-1.533091931e-09
-1.38823421e-09
-1.227680582e-09
-1.046449832e-09
-8.588267155e-10
-1.341108277e-09
-4.101270049e-09
-6.711051685e-09
-1.192999236e-07
-2.158219562e-06
-5.898044295e-07
-3.319796522e-07
1.7245053e-08
-2.270150081e-09
-3.257308286e-09
-2.447026744e-09
-1.005594584e-08
-6.000681497e-09
-8.455809699e-09
-1.123462593e-08
-2.900625058e-09
-4.304994313e-09
-9.192995052e-09
-1.035958001e-08
-7.733301362e-09
-1.913167442e-09
4.853945313e-10
-8.987815028e-09
-1.204524871e-08
-1.061411997e-08
-9.266113628e-09
-9.416528418e-09
-1.049927793e-08
-1.147627955e-08
-1.235505482e-08
-1.036816108e-08
-8.520271018e-09
-6.842665983e-09
-5.313784503e-09
-3.914989289e-09
-2.633958975e-09
-1.460227144e-09
-3.778420896e-10
4.908227173e-10
1.346782242e-10
-1.969874941e-10
-5.058903927e-10
-7.926894072e-10
-1.058526273e-09
-1.306623031e-09
-1.537868991e-09
-1.755438647e-09
-1.958334664e-09
-2.148993486e-09
-2.325409866e-09
-2.493648586e-09
-2.656331584e-09
-2.811058674e-09
-2.962256865e-09
-3.111712e-09
-3.2638036e-09
-3.425036047e-09
-3.623740918e-09
-3.934463435e-09
-4.503184274e-09
-5.286352535e-09
-5.632986832e-09
-5.524725737e-09
-7.335673464e-08
-1.377714483e-06
-2.56067913e-06
-3.556594522e-07
-1.971322502e-07
-1.022274452e-08
-6.989135484e-09
-5.839847387e-09
-4.729199682e-09
-2.669005999e-09
-2.787123465e-09
-1.18815294e-08
-9.674360637e-09
-1.152912851e-08
-8.120144655e-10
-2.318792691e-09
-2.665695789e-11
-1.016595567e-08
-5.188866338e-09
-5.238633467e-09
-5.394590339e-09
-3.531565188e-09
-1.829353598e-09
-3.257944123e-10
-3.547552125e-10
-3.35755088e-09
-6.028253213e-09
-8.418076969e-09
-1.056810377e-08
-1.231862739e-08
-1.163385689e-08
-1.101083489e-08
-1.044247e-08
-9.922443951e-09
-9.445568416e-09
-9.007522843e-09
-8.780083519e-09
-9.147963431e-09
-9.492133783e-09
-9.811395776e-09
-1.010828517e-08
-1.038443395e-08
-1.064300857e-08
-1.088598958e-08
-1.1113762e-08
-1.132748624e-08
-1.152502595e-08
-1.171100906e-08
-1.188885545e-08
-1.205587163e-08
-1.221759575e-08
-1.236594567e-08
-1.19614307e-08
-1.151443549e-08
-1.092197675e-08
-9.878072414e-09
-7.867186602e-09
-4.651826535e-09
-1.504026029e-09
8.040582455e-11
-4.239785752e-08
-6.14547638e-07
-4.419212221e-06
-2.326650371e-06
-6.376324881e-07
-1.58535576e-07
-8.65260181e-09
-9.363540114e-09
-5.37332049e-09
-4.505207263e-09
-3.165301885e-09
4.919354271e-10
-2.825684708e-09
-1.484345211e-09
-2.944075919e-09
-5.47062943e-09
-5.571056785e-09
-6.693200525e-09
-2.184621653e-09
-4.451480929e-09
-2.770838229e-09
-6.060697744e-09
-5.150474042e-09
-3.350670205e-09
-1.790508436e-09
-4.311444516e-10
1.040466651e-10
-2.594253617e-09
-5.004267103e-09
-7.167738722e-09
-9.118649853e-09
-1.088461801e-08
-1.228239621e-08
-1.170269499e-08
-1.117276234e-08
-1.068678512e-08
-1.024177172e-08
-9.83731494e-09
-9.463319003e-09
-9.116969829e-09
-8.796468171e-09
-8.753219355e-09
-9.03356764e-09
-9.297917528e-09
-9.545817765e-09
-9.77917376e-09
-9.9973767e-09
-1.020262387e-08
-1.039691341e-08
-1.057878004e-08
-1.075377305e-08
-1.092449062e-08
-1.109729394e-08
-1.129306477e-08
-1.156546006e-08
-1.205554726e-08
-1.087436635e-08
-7.409127912e-09
-3.969186375e-09
-2.197114834e-09
-1.017067784e-08
-3.116612495e-07
-4.029949008e-06
-6.536201676e-06
-1.569018573e-06
3.613430184e-08
1.947026209e-09
-1.023949976e-08
-1.501252406e-09
-1.099592294e-10
-6.122927283e-09
-2.793662116e-09
-2.606177391e-09
-6.45830901e-09
-4.939228479e-09
-2.211011929e-11
-6.825612621e-10
-8.041187828e-09
-2.562854584e-09
-5.111812183e-09
-3.917209323e-09
-2.755995545e-09
-6.212203266e-09
-4.999576388e-09
-3.199626749e-09
-1.650902509e-09
-3.032429241e-10
-2.305707165e-10
-2.902825504e-09
-5.287963998e-09
-7.428289976e-09
-9.357515759e-09
-1.110317353e-08
-1.22168058e-08
-1.164357184e-08
-1.111941123e-08
-1.063886118e-08
-1.01971615e-08
-9.789921873e-09
-9.413688356e-09
-9.064644939e-09
-8.744802051e-09
-8.778530654e-09
-9.057292126e-09
-9.319231188e-09
-9.565597752e-09
-9.797062729e-09
-1.001486349e-08
-1.022144676e-08
-1.041615641e-08
-1.06020453e-08
-1.078368557e-08
-1.097000702e-08
-1.118772366e-08
-1.150211962e-08
-1.205518926e-08
-1.07040251e-08
-7.257542759e-09
-3.945876188e-09
-2.384437947e-09
-1.373036769e-08
-1.762269833e-07
-2.46832156e-06
-1.125677682e-05
-5.423032197e-06
-3.766713208e-07
-1.554689763e-07
-3.231432622e-10
-1.250315846e-08
-4.088056288e-09
-2.593289948e-09
-6.054254336e-09
-6.574776316e-09
-6.336728706e-11
-2.651511117e-09
-1.141717786e-08
-6.252250634e-09
-1.204167135e-08
-1.186337505e-08
-2.143209148e-09
-6.176271121e-09
-3.150227797e-09
-3.591670011e-09
-6.497036336e-09
-4.437868315e-09
-2.683027529e-09
-1.173693282e-09
1.410463332e-10
-1.29433349e-09
-3.904799992e-09
-6.236481264e-09
-8.330055279e-09
-1.021781068e-08
-1.192732916e-08
-1.190479907e-08
-1.134309451e-08
-1.082951675e-08
-1.035886088e-08
-9.925843718e-09
-9.526750518e-09
-9.157000409e-09
-8.815451069e-09
-8.722863334e-09
-9.015903843e-09
-9.29095042e-09
-9.549227098e-09
-9.791632082e-09
-1.001915746e-08
-1.02355128e-08
-1.044096337e-08
-1.063718125e-08
-1.082987879e-08
-1.10308032e-08
-1.127291382e-08
-1.163232318e-08
-1.224180879e-08
-1.013815823e-08
-6.765860653e-09
-3.624079395e-09
-2.375740925e-09
-6.308668903e-09
-1.129896177e-07
-1.294844813e-06
-1.286270133e-05
-1.502797945e-05
-1.505102856e-06
9.133080069e-07
1.114971855e-07
-2.407779091e-09
-1.364908071e-10
-1.390454317e-09
-2.909106607e-09
-1.23789983e-09
-6.468847625e-09
-4.433644533e-09
-8.258253122e-09
-2.31689723e-09
-2.600604485e-09
-9.344004662e-09
-7.945759764e-11
-3.635941526e-09
-6.305667425e-09
-1.977179782e-09
-4.795289525e-09
-5.719285932e-09
-3.732517029e-09
-2.041660795e-09
-5.850519845e-10
2.608624097e-10
-2.5869717e-09
-5.117243152e-09
-7.37942231e-09
-9.411413453e-09
-1.124485541e-08
-1.213385441e-08
-1.153581057e-08
-1.09903107e-08
-1.049137408e-08
-1.003299317e-08
-9.611317331e-09
-9.221350296e-09
-8.861392312e-09
-8.693427976e-09
-9.000424012e-09
-9.287897589e-09
-9.557722959e-09
-9.810723894e-09
-1.004809576e-08
-1.027325043e-08
-1.048703006e-08
-1.069207121e-08
-1.089569257e-08
-1.111372646e-08
-1.13836635e-08
-1.178769733e-08
-1.211932569e-08
-9.555308359e-09
-6.27141899e-09
-3.294910595e-09
-2.481419756e-09
-3.557147469e-08
-9.616335344e-08
-1.110181304e-06
-1.447812565e-05
-3.580858344e-05
-6.855844145e-06
-4.209118615e-06
7.28790948e-08
3.322917765e-08
-4.682841282e-09
-7.310712687e-09
-4.136805074e-09
-3.781891639e-09
-2.224384789e-09
-1.083759576e-08
-4.564686706e-09
-1.462493451e-09
-1.427056633e-09
-6.041238858e-09
-7.57462313e-09
-1.085237363e-09
-4.721018662e-09
-4.787376427e-09
-2.401541935e-09
-6.212785777e-09
-4.847706108e-09
-2.949485877e-09
-1.331234026e-09
6.613846142e-11
-1.268228345e-09
-4.007604193e-09
-6.444090139e-09
-8.624058201e-09
-1.058385994e-08
-1.235185498e-08
-1.171748462e-08
-1.113936132e-08
-1.061175752e-08
-1.012834954e-08
-9.684342778e-09
-9.27503372e-09
-8.89772195e-09
-8.672373461e-09
-8.992019232e-09
-9.291448358e-09
-9.572140468e-09
-9.834984278e-09
-1.008155406e-08
-1.031431084e-08
-1.053546539e-08
-1.074914279e-08
-1.096387486e-08
-1.120038705e-08
-1.150118477e-08
-1.194794004e-08
-1.160808793e-08
-9.003864443e-09
-5.818031277e-09
-3.007733906e-09
-2.854607571e-09
-7.809849075e-08
-1.381736001e-07
-1.239882394e-06
-1.58501163e-05
-6.684452847e-05
-1.615272796e-05
1.036646906e-06
1.747491938e-06
1.248889051e-07
-1.622968291e-09
-1.194443352e-08
-3.163424015e-09
-5.677850126e-09
6.394890153e-10
-8.091363842e-09
-7.330438583e-09
-8.92483567e-09
-4.178313051e-09
-7.162884521e-09
-1.166918886e-08
-1.359235604e-09
-2.526135597e-09
-6.067943657e-09
-2.930160709e-09
-4.124609785e-09
-6.023925512e-09
-3.902211491e-09
-2.104636738e-09
-5.67409977e-10
6.313584321e-11
-2.897847765e-09
-5.514566711e-09
-7.844638977e-09
-9.93118674e-09
-1.180858521e-08
-1.189539289e-08
-1.128444781e-08
-1.072796622e-08
-1.021964312e-08
-9.753568441e-09
-9.325439809e-09
-8.931229841e-09
-8.653950383e-09
-8.986340305e-09
-9.298021359e-09
-9.58895467e-09
-9.861009302e-09
-1.011604898e-08
-1.035592158e-08
-1.058464968e-08
-1.080761486e-08
-1.103460445e-08
-1.129049261e-08
-1.16229901e-08
-1.211041902e-08
-1.110830011e-08
-8.488096176e-09
-5.408209312e-09
-2.769875919e-09
-3.46665419e-09
-1.086657177e-07
-2.070735345e-07
-1.424134779e-06
-1.593016574e-05
-0.0001267316387
-3.734777858e-05
1.101716605e-05
8.32793903e-06
7.881502728e-07
-9.119870741e-10
2.780997819e-10