/*--------------------------------*- C++ -*----------------------------------*\
  =========                 |
  \\      /  F ield         | OpenFOAM: The Open Source CFD Toolbox
   \\    /   O peration     | Website:  https://openfoam.org
    \\  /    A nd           | Version:  10
     \\/     M anipulation  |
\*---------------------------------------------------------------------------*/
FoamFile
{
    format      ascii;
    class       volScalarField;
    location    "0.02499901733";
    object      ddt0(rho,CH2O);
}
// * * * * * * * * * * * * * * * * * * * * * * * * * * * * * * * * * * * * * //

dimensions      [1 -3 -1 0 0 0 0];

internalField   nonuniform List<scalar> 
5170
(
-1.840027002e-06
-1.82709134e-06
-1.829022467e-06
-1.783972658e-06
-4.122011279e-08
-2.336596905e-06
-2.340821592e-06
-2.346443424e-06
-2.335113467e-06
-1.879335276e-06
-2.450473669e-06
-2.459157301e-06
-2.466884596e-06
-2.475350137e-06
-2.399968537e-06
-2.487812142e-06
-2.498465639e-06
-2.508501985e-06
-2.519405481e-06
-2.524700788e-06
-2.505607959e-06
-2.518755331e-06
-2.533826658e-06
-2.539763129e-06
-2.565403146e-06
-2.513732074e-06
-2.523887162e-06
-2.537929141e-06
-2.559794226e-06
-2.586142606e-06
-2.52146094e-06
-2.532545763e-06
-2.541618834e-06
-2.570454947e-06
-2.600930857e-06
-2.53252723e-06
-2.548153831e-06
-2.56621995e-06
-2.570367262e-06
-2.612377478e-06
-2.546913315e-06
-2.560688424e-06
-2.578484568e-06
-2.583273538e-06
-2.627424655e-06
-2.573837988e-06
-2.583068139e-06
-2.573583203e-06
-2.609049479e-06
-2.656911647e-06
-2.59630893e-06
-2.610650786e-06
-2.607442302e-06
-2.632425199e-06
-2.687904749e-06
-2.616851318e-06
-2.636490636e-06
-2.668679636e-06
-2.65903593e-06
-2.717253416e-06
-2.655231504e-06
-2.668964692e-06
-2.707320159e-06
-2.700503653e-06
-2.757965027e-06
-2.699723277e-06
-2.708819002e-06
-2.727999158e-06
-2.74680714e-06
-2.802031449e-06
-2.738212273e-06
-2.746657895e-06
-2.751374764e-06
-2.786805707e-06
-2.841461314e-06
-2.768554906e-06
-2.778955892e-06
-2.78150492e-06
-2.813558802e-06
-2.875459843e-06
-2.789156299e-06
-2.804902459e-06
-2.812516097e-06
-2.831563849e-06
-2.898713832e-06
-2.806670424e-06
-2.819534533e-06
-2.837415081e-06
-2.849951089e-06
-2.908169858e-06
-2.818929202e-06
-2.82795356e-06
-2.863555727e-06
-2.851425781e-06
-2.918014353e-06
-2.817584702e-06
-2.796465002e-06
-2.828609783e-06
-2.888362478e-06
-3.000739473e-06
-5.213289774e-11
-3.886160189e-12
1.168950874e-11
1.235061211e-11
-8.25531266e-12
2.364081218e-12
-2.998884148e-11
-2.625691505e-12
-6.716354797e-12
7.643080041e-12
-9.290630085e-13
8.948007393e-12
6.58382981e-12
-2.360451189e-11
-9.915685025e-13
1.449402031e-11
5.290787455e-12
1.795747977e-13
-7.997407541e-12
6.67822519e-12
-2.547381717e-10
-6.641632299e-12
6.113759165e-12
-1.073150386e-11
1.822698872e-09
1.748274716e-09
1.474533548e-10
7.385739562e-10
-4.109641895e-09
3.403406109e-07
-2.766439084e-07
-5.014454478e-10
-1.770829495e-07
-3.629748003e-07
-5.58013553e-06
6.338530044e-05
4.895694162e-07
-6.279713362e-07
-1.960264663e-05
-4.894937422e-06
-8.913674414e-06
-5.793264881e-06
1.421502315e-06
-1.568388772e-05
-1.757883868e-05
-1.342574905e-05
-1.867790804e-05
-1.749764165e-05
-2.434061588e-05
-3.195743719e-06
2.602516105e-06
-1.299228682e-05
-1.508086465e-05
-9.198354547e-06
2.520272192e-08
-1.163616397e-07
-1.040399063e-05
-1.522988108e-05
1.584487523e-05
2.402571865e-08
9.792365703e-08
8.258890656e-07
1.697731807e-05
-5.396402949e-07
-8.710132019e-07
-7.340734251e-07
-3.82733132e-07
-5.360323791e-07
-2.737709825e-07
-2.855904329e-07
-5.887466231e-07
-3.841219197e-07
-3.656688091e-07
-6.667809376e-07
-6.028001088e-08
-7.386255192e-08
-6.541478504e-07
-6.729103714e-07
-4.028514245e-07
1.494302048e-09
1.73217073e-07
-2.653101204e-07
-3.236623462e-07
-2.019398013e-08
2.234060723e-09
1.197767091e-07
8.466747777e-08
5.372962766e-08
1.140063339e-07
-1.311681449e-08
-7.437478743e-09
1.41379908e-07
1.293962402e-07
6.576085083e-08
-2.199745119e-08
-3.15595762e-06
-3.166789966e-05
-1.798386974e-07
-4.524810191e-07
-4.429138388e-08
-2.311198871e-06
-2.841545905e-06
-2.236284691e-06
-4.882163108e-05
-0.0003855212784
-3.571404356e-06
-9.848502426e-07
9.065059431e-06
-3.316995855e-05
0.0004744789042
-3.139807624e-06
-3.362025253e-06
-0.0007188927562
0.0001753441699
0.00113260557
-2.098315284e-06
1.485803515e-05
9.011809965e-05
0.0003294820789
0.0007051870601
-6.923543748e-06
-3.236594797e-05
-7.189795734e-05
0.0001637894248
2.624256485e-05
-1.042208386e-05
-7.935107621e-05
-0.0003124943374
-1.375562945e-05
0.0001452945803
6.226659478e-06
3.151337311e-05
-9.246401208e-05
6.812307896e-05
-0.0002301509634
6.890141046e-05
0.001180594122
0.0003336416198
0.0002191043263
0.0002366771627
9.572055682e-05
0.0003751285448
0.0004842415654
0.0003334244114
0.0001132944201
0.0001409764097
0.0003587045957
0.0004962014762
0.0002314322024
-0.0001184325475
0.0001222345624
0.0001538527412
0.0002254562054
0.0002008497307
-9.328059875e-06
-8.811048917e-05
0.000101376605
0.000232311637
0.0003185835769
0.0001052987614
0.0005144553286
0.0002615138702
9.964691522e-05
2.938863055e-05
0.0001931797365
-0.0003989026571
-0.0001517494495
0.0001217721959
0.00023008287
1.642880219e-05
-0.0002210370674
-8.369278184e-05
-6.847992974e-05
-8.107736721e-05
-0.0003176883708
-0.0008774599838
-0.000870661615
-0.0006463642679
-0.0004530112551
-0.000414563718
-0.001209337035
-0.001228982264
-0.001448662564
-0.001856869531
-0.002222547038
-0.002603150712
-0.003157120287
-0.004243321244
-0.006067261776
-0.007982294316
-0.00704307556
-0.008451786799
-0.01118655205
-0.01504901836
-0.0198326602
-0.01460896
-0.01616423286
-0.01926361846
-0.02337238248
-0.02821613738
-0.02110324013
-0.02094646401
-0.0213333564
-0.02239531366
-0.02340679608
-0.0143022302
-0.0137393372
-0.01270230144
-0.01108433687
-0.008915841863
-0.002025630769
-0.001400561278
0.0001161183119
0.00248142252
0.005372559966
0.008465624327
0.008949710906
0.01008946035
0.01202270984
0.01408553201
0.01448224284
0.01478491688
0.01551031254
0.01650110101
0.01771093333
0.01649072841
0.01671903035
0.01702295528
0.01748221862
0.01799820237
0.01635105535
0.01633479382
0.0164755882
0.01666370406
0.01673778483
0.01493355133
0.01505786141
0.01502221443
0.0150596519
0.01502229943
0.01331721786
0.01338007495
0.01330487449
0.01324734613
0.01319616381
0.01167765715
0.01161618806
0.01157289008
0.01148551353
0.01136021193
0.009982185298
0.01000166794
0.009910762411
0.009830209151
0.009684368369
0.00846066295
0.008433681008
0.008387676625
0.008287448859
0.008225412572
0.0070362057
0.007044105804
0.0070002464
0.006916323718
0.006849038545
0.005795423679
0.005788401013
0.005744054685
0.005688892015
0.005624189352
0.004675716797
0.004654073827
0.004629211327
0.004588929059
0.004526894714
0.003664648807
0.00366491665
0.003647694525
0.003603997565
0.003580441467
0.002822560547
0.002810301185
0.002800901364
0.002775996771
0.002751581918
0.002120089616
0.002113783432
0.002108298004
0.002088865017
0.002076084117
0.001559386878
0.001569185805
0.001560938343
0.001547754538
0.001527465362
0.001153450053
0.001145345662
0.001139575731
0.001139101571
0.001119867161
0.0008394051793
0.0008341116728
0.0008315401851
0.0008289048981
0.0008188974634
0.0006072831085
0.000607529308
0.0006064417493
0.0006018130316
0.000602188754
0.0004453029508
0.000443146856
0.0004424786765
0.0004404507074
0.0004396684874
0.0003261998587
0.0003258596108
0.0003267101012
0.0003232233889
0.0003267305345
0.00024237776
0.0002438646241
0.0002431967286
0.0002418625811
0.0002394615272
0.0001844826208
0.0001845596131
0.0001837714297
0.0001834992266
0.0001825890496
0.0001422273396
0.0001423848113
0.0001418770683
0.0001421423331
0.0001407180173
0.0001129247677
0.0001119665015
0.0001114674132
0.0001118225007
0.000112332794
9.070654454e-05
8.968520334e-05
8.971441309e-05
8.963605411e-05
9.02999224e-05
7.405886824e-05
7.362548015e-05
7.288201157e-05
7.354500189e-05
7.406209192e-05
5.978706547e-05
6.01313321e-05
5.983926601e-05
5.956308214e-05
6.042736081e-05
4.966826922e-05
4.994283931e-05
5.011597231e-05
4.939703168e-05
5.019004046e-05
4.3031992e-05
4.134912213e-05
4.124138547e-05
4.207760336e-05
4.041577551e-05
3.460828635e-05
3.492095917e-05
3.468262095e-05
3.465157158e-05
3.555098993e-05
2.949572154e-05
2.844627424e-05
2.927710775e-05
2.843345073e-05
2.902173579e-05
2.392770131e-05
2.367006439e-05
2.351611181e-05
2.37475203e-05
2.355959623e-05
1.857878412e-05
1.907793931e-05
1.886865753e-05
1.902154924e-05
1.765411756e-05
1.412847438e-05
1.45603533e-05
1.455802029e-05
1.456265435e-05
1.345204926e-05
1.10265585e-05
1.032333704e-05
1.100260032e-05
1.063643947e-05
9.910880782e-06
8.447172705e-06
8.240874678e-06
8.194171888e-06
8.568713996e-06
7.484842395e-06
6.951142052e-06
6.940949888e-06
7.063099059e-06
7.043836429e-06
6.02709953e-06
7.368488265e-06
7.048861679e-06
7.44718523e-06
7.378149962e-06
6.46473871e-06
8.677371464e-06
8.6754634e-06
8.739762454e-06
8.881630204e-06
8.152221692e-06
1.09248651e-05
1.090284981e-05
1.07636483e-05
1.123462972e-05
1.00356531e-05
1.314613542e-05
1.326738811e-05
1.30550748e-05
1.325902292e-05
1.304448353e-05
1.494192468e-05
1.489812169e-05
1.490957762e-05
1.548296725e-05
1.416233898e-05
1.648699801e-05
1.648454842e-05
1.649322685e-05
1.642422003e-05
1.626412195e-05
1.524259642e-05
1.526764319e-05
1.526221497e-05
1.512386997e-05
1.485849189e-05
1.34483578e-05
1.334773006e-05
1.338195787e-05
1.335517607e-05
1.32307856e-05
1.209549032e-05
1.204712812e-05
1.20429943e-05
1.201452272e-05
1.209356489e-05
0.003131101548
-0.002698593447
-0.00368635936
-0.002127923055
-9.252920044e-05
0.0008595954866
-0.0001975520572
0.000449787437
3.781283488e-05
-8.229337118e-05
-0.0002258533378
2.832816986e-05
-0.0003927699826
0.0005581707086
-0.0005156939508
0.0002501825269
-0.002800702717
-0.009385573939
-0.02366244363
-0.03143869449
-0.0246932316
-0.007142224021
0.007716166725
0.01647296625
0.01879069261
0.01848690849
0.0171282789
0.01500382773
0.01299562969
0.01126810746
0.009650552117
0.007967843542
0.006701163156
0.005543679116
0.004496710888
0.003509792286
0.002704787747
0.002033498066
0.00155609205
0.001136258081
0.0008258599326
0.0005847017582
0.0004300363045
0.0003094058264
0.0002470676382
0.0001840648927
0.0001432935954
0.0001080109129
8.634512616e-05
6.90325208e-05
5.697408891e-05
4.818677145e-05
4.458787242e-05
3.110764881e-05
2.794520427e-05
2.310377024e-05
2.281800312e-05
1.808521109e-05
1.401896581e-05
1.133548338e-05
1.061021721e-05
1.017124501e-05
1.120820472e-05
1.411215636e-05
1.341797619e-05
1.476079937e-05
1.707987586e-05
1.518479932e-05
1.307238413e-05
1.187816897e-05
-0.003226235062
9.575663112e-05
-4.040244539e-06
-1.29514394e-05
-2.204285067e-06
0.000208464139
0.003232290321
-6.579913113e-05
5.333906162e-06
-2.23234843e-06
-0.0005119809693
0.002287043316
-0.001921180697
-0.0001237200193
3.678020096e-06
0.0006682033377
7.598026287e-05
0.001599913159
1.690125984e-05
1.323183715e-05
-0.002699668009
0.0001403087758
0.0001229401187
-0.0001214461843
-9.53948021e-06
0.0076871979
0.001294101393
0.002269126151
0.0003741981092
-7.232102074e-07
-0.000535834036
0.0003627026777
0.001804921887
0.0002738581779
7.516678361e-05
-0.00176287233
0.000880210304
-0.0001596598767
0.0007932410988
0.0001433228261
-0.0005624621645
4.962182025e-05
7.538621446e-05
0.0003814802258
0.0001120357721
-0.001060651636
-0.0002490551919
-0.0003341344704
-0.0002679799044
-2.593836081e-05
-0.0005209600247
-0.000119212528
-0.000525478611
-0.0005594199907
-5.10924235e-05
-0.0001202908868
-0.0004494285329
-0.0005207822356
-0.0007641521395
-0.0001577301135
-0.0003353217235
-0.001539390224
-0.001139936416
-0.0004705981728
-0.000577029835
-0.0002065054002
-0.0007146520038
8.176653455e-05
-0.000236238245
-0.0001144291383
-0.0006698055602
-0.0006706988651
0.001068447631
-0.0006521374454
-0.0007004262188
-0.0005988504756
-0.00150377635
-0.001233181225
-0.001371717231
-0.0002654979408
-0.00246724284
-0.0005882378183
-0.001734884922
0.001201325904
0.00304474156
-0.01015950335
-0.008699397892
-0.007394763831
-0.0001961762389
0.007581786216
-0.02729667062
-0.03945281215
-0.06742032243
-0.1066869986
-0.01932953735
-0.03507263571
-0.04117381169
-0.0525647492
-0.07956296786
-0.1171240641
-0.02463577294
-0.02016186179
-0.006858605032
0.01674080751
0.03857533058
-0.004923687433
0.002859441106
0.01714984123
0.03693528569
0.05460027029
0.01068316963
0.01745230218
0.0257917035
0.03430918188
0.04043614179
0.01821695571
0.02232960023
0.02635101891
0.02955684327
0.03114186265
0.02000578805
0.02208195186
0.02371136345
0.02464266354
0.02456974518
0.01905585829
0.01986902609
0.02028432655
0.02020750216
0.01956711201
0.01717861394
0.01739057043
0.01729105007
0.01683884784
0.01603592253
0.01508114928
0.01498167391
0.01466393264
0.01414236735
0.01335411613
0.01306182045
0.01282220545
0.012421497
0.0118683082
0.01117635578
0.01119405906
0.01092389707
0.01052096313
0.009997743246
0.009390327538
0.009509862772
0.009251668932
0.008881774538
0.008427300054
0.007909491157
0.008028112452
0.007783276694
0.007468227244
0.007088788838
0.006660778855
0.006691734683
0.006499819302
0.006237712345
0.005934140205
0.005584978616
0.005507849435
0.005353864915
0.005153450787
0.004905221671
0.004633566088
0.004446618751
0.004334094283
0.004176045805
0.003986808347
0.003772715263
0.003514016102
0.003427671877
0.00331163833
0.003166581137
0.003004894999
0.002709674055
0.002650116075
0.00256374728
0.002459734198
0.002337649445
0.002046543657
0.002005869686
0.001945280474
0.001870112681
0.001782717719
0.001516755636
0.001493184594
0.001452199968
0.001398902057
0.001337633941
0.001115529603
0.001099660366
0.00107176374
0.001035142829
0.0009926844776
0.0008153350373
0.0008051063874
0.000785929214
0.0007618435787
0.0007320147492
0.0005964082461
0.0005885698787
0.0005760999826
0.0005592288541
0.0005398021563
0.0004366298432
0.0004316431534
0.0004236349345
0.0004126067357
0.0003991877093
0.0003231170154
0.0003191364973
0.000313815165
0.0003067672849
0.0002974138717
0.0002400563568
0.0002389060879
0.0002354370171
0.0002303689105
0.0002245713436
0.0001824678042
0.0001813294511
0.0001794860366
0.0001760267205
0.0001723653485
0.0001411241678
0.0001405502411
0.0001393204383
0.0001369728869
0.0001345833592
0.0001117466701
0.0001109354449
0.0001101747131
0.0001084790622
0.0001066975312
8.973730557e-05
8.972800014e-05
8.833793077e-05
8.729918869e-05
8.581677197e-05
7.29865597e-05
7.245747592e-05
7.169509894e-05
7.111446329e-05
7.001395955e-05
5.986488152e-05
5.938025188e-05
5.905586039e-05
5.84662255e-05
5.769390293e-05
4.973094154e-05
4.940426427e-05
4.906116335e-05
4.844991128e-05
4.77952426e-05
4.110558627e-05
4.111831261e-05
4.084191398e-05
4.028854532e-05
3.970718117e-05
3.474739561e-05
3.423030394e-05
3.392350046e-05
3.353442581e-05
3.293062823e-05
2.861766171e-05
2.837481525e-05
2.811100503e-05
2.771665101e-05
2.728187362e-05
2.349659727e-05
2.328420914e-05
2.306319513e-05
2.271386501e-05
2.241872418e-05
1.84076154e-05
1.868121079e-05
1.848312217e-05
1.831586989e-05
1.810466906e-05
1.415072699e-05
1.447673149e-05
1.443218772e-05
1.442732916e-05
1.456089176e-05
1.027190782e-05
1.125354164e-05
1.128694388e-05
1.134824542e-05
1.131359123e-05
8.30854622e-06
8.653470566e-06
8.670372333e-06
8.710431654e-06
8.743693897e-06
6.808789329e-06
7.217273901e-06
7.367448032e-06
7.439655875e-06
7.462052467e-06
6.907951923e-06
7.360081756e-06
7.506591598e-06
7.666427471e-06
7.965898455e-06
8.612863896e-06
8.742257255e-06
8.896146906e-06
9.103095645e-06
9.360014618e-06
1.070175408e-05
1.096034959e-05
1.100633721e-05
1.112087604e-05
1.127012564e-05
1.306454215e-05
1.305885892e-05
1.312762133e-05
1.335834337e-05
1.250324876e-05
1.592542427e-05
1.609548443e-05
1.596406126e-05
1.585914614e-05
1.57710428e-05
1.637619817e-05
1.633178993e-05
1.591800713e-05
1.553454874e-05
1.506265086e-05
1.466664235e-05
1.441802903e-05
1.41104704e-05
1.37588088e-05
1.353411992e-05
1.303221895e-05
1.279392447e-05
1.211940043e-05
1.245871339e-05
1.243762267e-05
1.173800409e-05
1.166906267e-05
1.171315829e-05
1.195532618e-05
1.193793522e-05
-1.528295524e-07
-6.476538355e-06
-1.508485788e-06
-4.525774937e-07
-2.628215517e-07
-2.18571769e-07
-2.067181455e-07
-2.043059619e-07
-2.042483565e-07
-2.043917899e-07
-2.043610822e-07
-2.04097247e-07
-2.038034151e-07
-2.035506181e-07
-2.03421397e-07
-2.036803371e-07
-2.035820182e-07
-2.030589568e-07
-2.02887359e-07
-2.028320066e-07
-2.02796892e-07
-2.027596003e-07
-2.027212591e-07
-2.026910231e-07
-2.026717249e-07
-2.026560645e-07
-2.026440202e-07
-2.026361592e-07
-2.026307192e-07
-2.02626254e-07
-2.026230134e-07
-2.026208352e-07
-2.026200974e-07
-2.026195481e-07
-2.026190536e-07
-2.026195267e-07
-2.026204411e-07
-2.026205902e-07
-2.026204951e-07
-2.026213664e-07
-2.026222067e-07
-2.026224006e-07
-2.026231879e-07
-2.026221349e-07
-2.026220486e-07
-2.026235297e-07
-2.026266776e-07
-2.026308491e-07
-2.026356612e-07
-2.026408796e-07
-2.02646913e-07
-2.026538733e-07
-2.026607696e-07
-2.026707631e-07
-2.026940694e-07
-2.027575065e-07
-2.027799771e-07
-2.017742667e-07
-1.956147621e-07
-1.878400912e-07
-3.105892373e-06
-2.135932734e-05
-3.218199785e-06
-8.405960362e-07
-5.681484405e-07
-5.214829934e-07
-5.089964113e-07
-5.064720499e-07
-5.065824052e-07
-5.068071209e-07
-5.069540747e-07
-5.067864485e-07
-5.065754242e-07
-5.062493129e-07
-5.060860765e-07
-5.065354547e-07
-5.066832007e-07
-5.062505249e-07
-5.063477703e-07
-5.065374631e-07
-5.066332722e-07
-5.066484526e-07
-5.066422732e-07
-5.066495491e-07
-5.066573931e-07
-5.066788618e-07
-5.066981507e-07
-5.067189292e-07
-5.067340341e-07
-5.067501875e-07
-5.067669094e-07
-5.067848478e-07
-5.068028267e-07
-5.068136446e-07
-5.068223188e-07
-5.068405854e-07
-5.068546795e-07
-5.068691905e-07
-5.068713897e-07
-5.068870314e-07
-5.069002672e-07
-5.069182775e-07
-5.069529912e-07
-5.069700064e-07
-5.069972664e-07
-5.07038508e-07
-5.070851309e-07
-5.071341981e-07
-5.071866525e-07
-5.072386575e-07
-5.073055006e-07
-5.073796217e-07
-5.074466734e-07
-5.075302716e-07
-5.076629693e-07
-5.080552887e-07
-5.093440864e-07
-5.134486336e-07
-5.251349499e-07
-5.410892585e-07
-8.494658363e-06
-3.872745042e-05
-3.614045487e-06
-7.887807961e-07
-6.26664686e-07
-6.118308365e-07
-6.10357428e-07
-6.096024054e-07
-6.110199515e-07
-6.124140232e-07
-6.135228667e-07
-6.145716957e-07
-6.151658336e-07
-6.154618287e-07
-6.156315079e-07
-6.161123343e-07
-6.16776818e-07
-6.176166013e-07
-6.187965996e-07
-6.197966043e-07
-6.20454332e-07
-6.208839471e-07
-6.212186108e-07
-6.215285743e-07
-6.218353262e-07
-6.22125788e-07
-6.223942658e-07
-6.226481532e-07
-6.228799551e-07
-6.230978282e-07
-6.232916654e-07
-6.234689968e-07
-6.236459011e-07
-6.238087094e-07
-6.239445117e-07
-6.240774965e-07
-6.242024963e-07
-6.243132718e-07
-6.243967215e-07
-6.244884562e-07
-6.245773435e-07
-6.246575603e-07
-6.247569224e-07
-6.248407507e-07
-6.249459882e-07
-6.250608914e-07
-6.251890071e-07
-6.253171047e-07
-6.254464632e-07
-6.255862268e-07
-6.25738428e-07
-6.258926386e-07
-6.260417159e-07
-6.262116999e-07
-6.264363271e-07
-6.270181866e-07
-6.28831576e-07
-6.34416067e-07
-6.477822713e-07
-6.605384818e-07
-2.152060191e-05
-3.80569016e-05
-1.17360618e-05
-1.056049547e-06
-5.141124145e-07
-4.836794683e-07
-4.801409291e-07
-4.817315316e-07
-4.865098789e-07
-4.914409228e-07
-4.959142248e-07
-4.994056483e-07
-5.019325388e-07
-5.038329074e-07
-5.052156142e-07
-5.064968036e-07
-5.083608313e-07
-5.109436123e-07
-5.134372867e-07
-5.1540577e-07
-5.168209546e-07
-5.178847994e-07
-5.187872531e-07
-5.196134621e-07
-5.203947397e-07
-5.211171817e-07
-5.217774425e-07
-5.223843239e-07
-5.22940574e-07
-5.234504925e-07
-5.239127436e-07
-5.243290121e-07
-5.247073519e-07
-5.250493092e-07
-5.253453397e-07
-5.256145421e-07
-5.25854748e-07
-5.260658868e-07
-5.26251528e-07
-5.264242077e-07
-5.26585142e-07
-5.267259015e-07
-5.26861203e-07
-5.269868375e-07
-5.271232895e-07
-5.272522647e-07
-5.273963733e-07
-5.275352894e-07
-5.276830584e-07
-5.278301975e-07
-5.279844445e-07
-5.281364289e-07
-5.282893422e-07
-5.284470178e-07
-5.286320567e-07
-5.289575963e-07
-5.296993938e-07
-5.311886302e-07
-5.322405995e-07
-5.301500836e-07
-2.332936916e-05
-6.32585586e-05
-9.388903929e-05
-1.033296578e-05
-9.949214696e-07
-3.768495975e-07
-2.8940208e-07
-2.773202352e-07
-2.846609461e-07
-2.963366208e-07
-3.069311216e-07
-3.146191978e-07
-3.195441612e-07
-3.227568846e-07
-3.24766157e-07
-3.262379125e-07
-3.283651059e-07
-3.313627547e-07
-3.341390713e-07
-3.362744678e-07
-3.378124799e-07
-3.390182155e-07
-3.400771687e-07
-3.410574322e-07
-3.419701355e-07
-3.42812084e-07
-3.435878955e-07
-3.44298399e-07
-3.449499861e-07
-3.455394158e-07
-3.460715988e-07
-3.465501347e-07
-3.469730258e-07
-3.473483909e-07
-3.476739444e-07
-3.479583825e-07
-3.482052869e-07
-3.484218843e-07
-3.486118345e-07
-3.487807064e-07
-3.489306985e-07
-3.490577225e-07
-3.491706947e-07
-3.492669858e-07
-3.493600354e-07
-3.494417065e-07
-3.495337011e-07
-3.496219064e-07
-3.497189592e-07
-3.49807583e-07
-3.499000637e-07
-3.499858135e-07
-3.500829186e-07
-3.501577971e-07
-3.502197013e-07
-3.50144419e-07
-3.495848919e-07
-3.471410542e-07
-3.397430033e-07
-3.305330637e-07
-1.643193916e-05
-0.0001103618563
-0.0001894120063
-7.637736358e-05
-4.229837475e-06
-1.977438958e-07
-4.345477858e-08
-5.871798503e-08
-9.133634916e-08
-1.247369755e-07
-1.505664234e-07
-1.674641166e-07
-1.770267628e-07
-1.82034642e-07
-1.844505243e-07
-1.85777217e-07
-1.875047719e-07
-1.898694357e-07
-1.920494693e-07
-1.93736321e-07
-1.949401235e-07
-1.958644085e-07
-1.966813102e-07
-1.974588775e-07
-1.981948189e-07
-1.988784235e-07
-1.995134837e-07
-2.000918073e-07
-2.006204514e-07
-2.010975941e-07
-2.015291537e-07
-2.019152245e-07
-2.02254821e-07
-2.025543705e-07
-2.028121202e-07
-2.030349915e-07
-2.032196191e-07
-2.033799887e-07
-2.035144552e-07
-2.036239947e-07
-2.037119142e-07
-2.037805312e-07
-2.038342542e-07
-2.038709084e-07
-2.039002276e-07
-2.039199039e-07
-2.039411752e-07
-2.039607786e-07
-2.039861942e-07
-2.040068983e-07
-2.040342799e-07
-2.040569723e-07
-2.040851921e-07
-2.040910984e-07
-2.040654991e-07
-2.037795586e-07
-2.027717707e-07
-1.994382361e-07
-1.917301438e-07
-1.837809943e-07
-3.30519777e-05
-0.0001489701838
-0.0002678730564
-0.0003030294008
-4.504141872e-05
-7.908773192e-08
3.676837449e-07
2.096483773e-07
1.041458772e-07
2.127719332e-08
-3.673610667e-08
-7.303998719e-08
-9.269998487e-08
-1.02091228e-07
-1.062160911e-07
-1.079640664e-07
-1.094210938e-07
-1.111510446e-07
-1.126409091e-07
-1.137732886e-07
-1.145089613e-07
-1.150583876e-07
-1.155448302e-07
-1.160247634e-07
-1.165034596e-07
-1.169652553e-07
-1.173891028e-07
-1.177873045e-07
-1.181525629e-07
-1.18484927e-07
-1.187948481e-07
-1.1906885e-07
-1.19311075e-07
-1.195291869e-07
-1.197162819e-07
-1.198797702e-07
-1.200199034e-07
-1.201267772e-07
-1.202168349e-07
-1.202887209e-07
-1.203347827e-07
-1.203601264e-07
-1.20379317e-07
-1.20377634e-07
-1.203685854e-07
-1.203504937e-07
-1.203310139e-07
-1.203035857e-07
-1.202839587e-07
-1.202648068e-07
-1.202513232e-07
-1.20235615e-07
-1.202316695e-07
-1.201903807e-07
-1.20136279e-07
-1.198917141e-07
-1.190751269e-07
-1.167694698e-07
-1.120900932e-07
-1.076784247e-07
1.313772463e-05
-0.0001223153989
-0.0003485634987
-0.0005002248281
-0.0002688514672
3.605075934e-07
2.936014959e-06
9.594077486e-07
4.590990228e-07
2.238938538e-07
8.241642179e-08
2.855003466e-10
-4.234109924e-08
-6.182966441e-08
-7.008764795e-08
-7.337461239e-08
-7.492298137e-08
-7.632566736e-08
-7.752783395e-08
-7.837678754e-08
-7.879095773e-08
-7.909795676e-08
-7.922080581e-08
-7.952247943e-08
-7.981858149e-08
-8.012141422e-08
-8.042178635e-08
-8.068598052e-08
-8.093877048e-08
-8.119895182e-08
-8.143053412e-08
-8.162347536e-08
-8.182883989e-08
-8.201293658e-08
-8.21664822e-08
-8.229872558e-08
-8.244164692e-08
-8.253211802e-08
-8.261021194e-08
-8.267566648e-08
-8.271788424e-08
-8.27395399e-08
-8.273994306e-08
-8.274367138e-08
-8.271109843e-08
-8.267334828e-08
-8.265158804e-08
-8.25873984e-08
-8.255412565e-08
-8.249673033e-08
-8.246279338e-08
-8.242714728e-08
-8.239713685e-08
-8.235759939e-08
-8.230598742e-08
-8.215055759e-08
-8.172479703e-08
-8.059791741e-08
-7.850558009e-08
-7.662110181e-08
9.449690792e-06
-6.837809514e-05
-0.000449418446
-0.0006914725055
-0.0006855290623
-4.547801264e-05
2.076297761e-05
4.051431959e-06
1.402081401e-06
6.414696384e-07
2.825453165e-07
9.458678459e-08
2.090983218e-09
-3.763434776e-08
-5.306795611e-08
-5.949111314e-08
-6.205245979e-08
-6.329366924e-08
-6.432736037e-08
-6.510118021e-08
-6.547278027e-08
-6.557225724e-08
-6.568611645e-08
-6.581666049e-08
-6.600947602e-08
-6.622572021e-08
-6.6448468e-08
-6.668660714e-08
-6.687734355e-08
-6.708246858e-08
-6.73123434e-08
-6.751282359e-08
-6.768168966e-08
-6.786676802e-08
-6.804643371e-08
-6.819330928e-08
-6.833891651e-08
-6.84301665e-08
-6.853995234e-08
-6.864592952e-08
-6.868253659e-08
-6.871968507e-08
-6.873611218e-08
-6.873007107e-08
-6.870689484e-08
-6.866763578e-08
-6.861892733e-08
-6.856020267e-08
-6.850234059e-08
-6.843912871e-08
-6.838344585e-08
-6.833139962e-08
-6.828438386e-08
-6.824003107e-08
-6.819688451e-08
-6.812290858e-08
-6.795395125e-08
-6.75372088e-08
-6.678879998e-08
-6.609902786e-08
3.815009871e-06
-3.674024571e-05
-0.0004542927494
-0.0009718792267
-0.001168911332
-0.000334488636
0.0001290333447
1.729443709e-05
3.92568647e-06
1.539548362e-06
6.575788249e-07
2.484666322e-07
6.358251149e-08
-1.388829137e-08
-4.281071429e-08
-5.29471693e-08
-5.700491228e-08
-5.898725736e-08
-6.021969481e-08
-6.072586544e-08
-6.093755663e-08
-6.111172373e-08
-6.122303591e-08
-6.128250199e-08
-6.139330289e-08
-6.156398565e-08
-6.175917247e-08
-6.196696102e-08
-6.218273074e-08
-6.240602069e-08
-6.262370508e-08
-6.283423848e-08
-6.304055991e-08
-6.324216478e-08
-6.344169471e-08
-6.362539005e-08
-6.378923325e-08
-6.392115592e-08
-6.404821297e-08
-6.414892748e-08
-6.42260391e-08
-6.427946293e-08
-6.430969526e-08
-6.431758585e-08
-6.430404316e-08
-6.426952359e-08
-6.421861281e-08
-6.415593679e-08
-6.408584396e-08
-6.401244886e-08
-6.39408185e-08
-6.387209408e-08
-6.381054274e-08
-6.375667612e-08
-6.371271336e-08
-6.36741002e-08
-6.362428874e-08
-6.350992073e-08
-6.328101015e-08
-6.3027185e-08
-4.725748531e-06
-4.700461312e-05
-0.0003140790528
-0.001323222686
-0.001686193023
-0.00102116644
0.0003612683778
8.350651989e-05
1.328611082e-05
4.025241582e-06
1.500677191e-06
5.436885055e-07
1.644000548e-07
2.001879015e-08
-3.154785255e-08
-4.855559514e-08
-5.481030305e-08
-5.742388553e-08
-5.887339154e-08
-5.951096815e-08
-5.961911167e-08
-5.967276047e-08
-5.978833729e-08
-5.98595414e-08
-5.994170086e-08
-6.007643623e-08
-6.025558932e-08
-6.045841875e-08
-6.06726746e-08
-6.089701357e-08
-6.113186821e-08
-6.137191016e-08
-6.160921907e-08
-6.183978275e-08
-6.206177102e-08
-6.227224779e-08
-6.246565195e-08
-6.263582086e-08
-6.278387031e-08
-6.290966121e-08
-6.301187421e-08
-6.308719569e-08
-6.313442598e-08
-6.315517792e-08
-6.315013902e-08
-6.312060443e-08
-6.307054722e-08
-6.3004672e-08
-6.292748765e-08
-6.284358271e-08
-6.275825177e-08
-6.267507363e-08
-6.259782338e-08
-6.253071299e-08
-6.247868316e-08
-6.24470395e-08
-6.243427494e-08
-6.241383365e-08
-6.234217878e-08
-6.221855281e-08
-3.682113393e-05
-2.877730302e-05
-0.0002393498111
-0.001931851919
-0.002601791209
-0.002053608413
0.0006385732016
0.0003377122026
4.868651577e-05
1.050439653e-05
3.181081506e-06
1.037324716e-06
3.101644157e-07
6.511380885e-08
-1.604797852e-08
-4.368021025e-08
-5.323913815e-08
-5.701570904e-08
-5.844054472e-08
-5.919554469e-08
-5.932041468e-08
-5.93884766e-08
-5.942021619e-08
-5.94225315e-08
-5.944028013e-08
-5.953855008e-08
-5.971474136e-08
-5.991778131e-08
-6.012839873e-08
-6.035649414e-08
-6.060259199e-08
-6.085765327e-08
-6.111528609e-08
-6.13708225e-08
-6.161912495e-08
-6.185637213e-08
-6.207834069e-08
-6.227898734e-08
-6.245480214e-08
-6.260554083e-08
-6.273020391e-08
-6.282569228e-08
-6.288981873e-08
-6.292329528e-08
-6.292759304e-08
-6.290413761e-08
-6.28562269e-08
-6.278878999e-08
-6.270650111e-08
-6.261436032e-08
-6.251777377e-08
-6.242168734e-08
-6.233053988e-08
-6.225004002e-08
-6.218742689e-08
-6.215011087e-08
-6.213891435e-08
-6.213431786e-08
-6.209957827e-08
-6.200505951e-08
-8.150357888e-05
-4.066971088e-05
-0.0002469876175
-0.002682908489
-0.004194117821
-0.003491105686
0.0003230878242
0.001278286893
0.0001073267134
2.524605992e-05
6.175669684e-06
1.719053129e-06
4.813666235e-07
1.140500618e-07
3.19981289e-10
-3.769248423e-08
-5.141365182e-08
-5.631533577e-08
-5.839957747e-08
-5.918697157e-08
-5.935557376e-08
-5.950001694e-08
-5.942344628e-08
-5.929746783e-08
-5.925147019e-08
-5.933131956e-08
-5.949375791e-08
-5.967858158e-08
-5.987559987e-08
-6.009878946e-08
-6.034693053e-08
-6.060920087e-08
-6.087899501e-08
-6.115177623e-08
-6.142094136e-08
-6.168026995e-08
-6.192559551e-08
-6.215175243e-08
-6.235258255e-08
-6.25254817e-08
-6.267002492e-08
-6.278385429e-08
-6.286410025e-08
-6.291049322e-08
-6.292465454e-08
-6.290817823e-08
-6.286384025e-08
-6.279654768e-08
-6.271123166e-08
-6.261319408e-08
-6.250815857e-08
-6.240181836e-08
-6.229954751e-08
-6.220794066e-08
-6.213514535e-08
-6.208873961e-08
-6.206925585e-08
-6.205887132e-08
-6.202596069e-08
-6.193419785e-08
-8.466349442e-05
-5.926375888e-05
-0.0002602761701
-0.002891526062
-0.006380402948
-0.00532554927
-0.0002445073533
0.002567479394
0.0003631343726
6.01125251e-05
1.174201879e-05
2.724876859e-06
6.920134893e-07
1.698519492e-07
1.879993856e-08
-3.069390017e-08
-4.874523402e-08
-5.554809809e-08
-5.816014923e-08
-5.974006673e-08
-5.982359535e-08
-5.96319573e-08
-5.946996419e-08
-5.934992985e-08
-5.929013287e-08
-5.931879164e-08
-5.941263287e-08
-5.954811093e-08
-5.972587436e-08
-5.994301228e-08
-6.018755641e-08
-6.044918483e-08
-6.072278055e-08
-6.100444844e-08
-6.128740863e-08
-6.156337745e-08
-6.182638288e-08
-6.207172165e-08
-6.229298308e-08
-6.248508407e-08
-6.264673827e-08
-6.277641984e-08
-6.287116305e-08
-6.292973561e-08
-6.295353203e-08
-6.294427925e-08
-6.290446656e-08
-6.283887248e-08
-6.27525868e-08
-6.265113408e-08
-6.254058344e-08