/*--------------------------------*- C++ -*----------------------------------*\
  =========                 |
  \\      /  F ield         | OpenFOAM: The Open Source CFD Toolbox
   \\    /   O peration     | Website:  https://openfoam.org
    \\  /    A nd           | Version:  10
     \\/     M anipulation  |
\*---------------------------------------------------------------------------*/
FoamFile
{
    format      ascii;
    class       volScalarField;
    location    "0.02499901733";
    object      ddt0(rho,CH2CHO);
}
// * * * * * * * * * * * * * * * * * * * * * * * * * * * * * * * * * * * * * //

dimensions      [1 -3 -1 0 0 0 0];

internalField   nonuniform List<scalar> 
5170
(
-1.173859153e-50
-1.173950632e-50
-1.174024933e-50
-1.174263982e-50
-1.175015631e-50
-1.18353341e-50
-1.183644889e-50
-1.183805196e-50
-1.184100074e-50
-1.184825947e-50
-1.183588275e-50
-1.183718283e-50
-1.183943983e-50
-1.184253872e-50
-1.184968338e-50
-1.183568858e-50
-1.183725443e-50
-1.183996523e-50
-1.18430171e-50
-1.185026101e-50
-1.183562332e-50
-1.183745411e-50
-1.184045589e-50
-1.184337498e-50
-1.185082305e-50
-1.183556985e-50
-1.18376393e-50
-1.184082098e-50
-1.184361511e-50
-1.185134488e-50
-1.183563551e-50
-1.183787114e-50
-1.184111174e-50
-1.184379031e-50
-1.185183506e-50
-1.183572721e-50
-1.183803872e-50
-1.184126702e-50
-1.184417907e-50
-1.198355057e-50
-1.432476891e-50
-1.245036499e-50
-1.19441091e-50
-3.319811277e-50
-9.614204412e-48
-1.112529302e-46
-3.133967735e-47
-6.659363499e-48
-1.579596829e-45
-7.003015081e-43
-5.150113942e-42
-1.687096188e-42
-4.489616865e-43
-1.161344599e-40
-5.109546814e-38
-2.472218386e-37
-9.550227237e-38
-3.160501418e-38
-8.351271408e-36
-3.73497653e-33
-1.232336955e-32
-5.677477316e-33
-2.311359119e-33
-5.752201837e-31
-2.738569978e-28
-6.375900418e-28
-3.533910908e-28
-1.766038873e-28
-3.676918133e-26
-2.016045563e-23
-3.425189767e-23
-2.301232276e-23
-1.423242324e-23
-2.044491599e-21
-1.49020791e-18
-1.908667021e-18
-1.561258201e-18
-1.218363254e-18
-8.382464289e-17
-1.105921574e-13
-1.102421609e-13
-1.102641527e-13
-1.103034843e-13
-1.104022777e-13
-1.114444316e-13
-1.11271068e-13
-1.112885337e-13
-1.113075057e-13
-1.113399329e-13
-1.114512052e-13
-1.112779254e-13
-1.112945822e-13
-1.113127676e-13
-1.113657756e-13
-1.182691026e-13
-1.11277909e-13
-1.112876303e-13
9.731437522e-10
7.262736047e-10
1.395390821e-09
-2.80550237e-16
-2.645857068e-16
-2.538773089e-16
-2.68438757e-16
-3.264476073e-16
-2.477695555e-16
-2.351437519e-16
-2.385857615e-16
-2.31018602e-16
-2.450055678e-16
-3.733949932e-17
-6.316750687e-17
-6.160310553e-17
-5.901812627e-17
-3.322530957e-17
-8.903010873e-18
-4.617837005e-18
-5.27644543e-18
-6.386904405e-18
7.674933698e-18
-5.511605675e-18
-3.092519913e-18
9.51107905e-18
1.539231351e-16
1.591868403e-15
-1.843490869e-15
-7.12448438e-17
2.667832563e-15
1.504862465e-14
-1.837973668e-12
-7.97329744e-13
-6.44938476e-14
-4.22085902e-12
3.012034582e-12
-2.10253094e-10
6.822497605e-10
2.821675339e-12
-4.229385426e-12
-2.45808723e-10
-5.07124315e-11
-9.605355622e-11
2.210698549e-10
-8.524167066e-11
-1.77759931e-10
-8.216340665e-11
-6.243834355e-11
-1.983121026e-10
-1.976134798e-10
-7.439658491e-11
-8.814288607e-12
5.816448595e-11
-2.973477716e-11
-3.069076847e-11
-1.352992174e-10
-3.17642889e-12
-6.740493784e-12
-1.072116192e-10
-1.26890575e-10
-3.648145452e-11
2.419127933e-12
2.110534429e-12
5.133324536e-12
-2.227491922e-11
-6.224501829e-13
-3.976864238e-12
-2.9762436e-12
-5.379148971e-12
-1.284360916e-12
-5.192964038e-13
-8.532593373e-13
-2.306132882e-12
-1.305857537e-12
-1.020973194e-12
-2.333774205e-12
-2.635196427e-13
-3.938609744e-13
-2.767426378e-12
-2.453300496e-12
-1.526440555e-12
-3.932764537e-13
-4.130173078e-14
-1.200231261e-12
-1.340757262e-12
-2.81422194e-13
-6.547945313e-13
-3.243358374e-13
-5.799593532e-14
-1.749822516e-13
-2.316132581e-13
-8.884434983e-13
3.163701243e-13
7.235236745e-13
3.782341779e-13
-1.889091037e-13
-9.728103474e-13
-1.579548704e-11
-2.325751338e-10
-1.906393118e-11
-1.303469276e-11
-4.966160819e-13
3.244488225e-10
-9.183741537e-10
-3.013939034e-10
-2.328659279e-08
-3.645409951e-09
-1.113650786e-13
2.421479566e-10
2.945381468e-09
-1.385021791e-09
-3.295277252e-08
-6.645988276e-10
-1.936585562e-11
1.728454282e-07
-6.609779012e-10
2.407407916e-10
-6.123849749e-10
8.667477989e-10
-4.530815791e-08
6.871922703e-09
2.254004107e-08
-7.170264294e-11
2.280222065e-09
5.517108545e-08
1.390581301e-08
1.056881328e-08
9.937471384e-10
-1.190625083e-09
6.532049878e-08
2.692629383e-08
3.070053138e-07
1.654054894e-09
-7.727021148e-10
1.787557067e-08
-2.523636415e-09
9.583717083e-08
-2.147650114e-09
-2.71364185e-07
7.132060579e-09
3.447914514e-08
-8.971349681e-07
2.886429102e-09
-7.244284383e-08
6.96282322e-09
1.263187443e-07
1.205215505e-06
3.117622227e-09
-5.92027221e-09
-1.476610288e-08
-1.402411046e-07
-3.08032756e-07
5.368635318e-09
6.486472438e-09
-1.069679366e-08
-1.205965396e-07
-7.26014823e-07
1.364701948e-09
1.953451564e-09
-1.5320628e-09
-1.394376432e-08
-2.057601091e-07
-4.109779321e-09
6.611785929e-09
2.677121398e-08
1.320705002e-07
6.346623307e-07
-2.235234761e-09
3.936734363e-09
3.108698964e-08
1.270380689e-07
2.506367753e-07
9.156940229e-09
3.449731057e-08
3.080875385e-08
9.810158866e-08
2.484512259e-07
-3.215371477e-08
-2.125455189e-08
-7.969625657e-08
-8.111087612e-08
-2.480606331e-07
-5.039159977e-08
-8.49862535e-08
-2.138698713e-07
-5.569840922e-07
-1.194340133e-06
-9.597677496e-08
-2.176079119e-07
-7.502985154e-07
-1.498273434e-06
-2.230076482e-06
-1.623921282e-07
-2.329160507e-07
-1.563134509e-08
1.688864898e-06
5.043955789e-06
-5.245754391e-07
-4.646703803e-07
5.928139774e-08
1.53379546e-06
2.627547825e-06
-9.216231609e-07
-7.021703917e-07
-4.475047756e-07
-6.335113501e-07
-1.686952992e-06
1.496655923e-06
1.69376542e-06
1.953078008e-06
2.393057958e-06
3.260306279e-06
4.771922675e-06
5.012674984e-06
5.717495038e-06
6.838085098e-06
8.552316049e-06
4.33590092e-06
4.334664627e-06
4.789478862e-06
5.03220721e-06
5.500901356e-06
1.855882766e-06
1.865636756e-06
1.874113109e-06
1.790851158e-06
1.881675198e-06
4.754950736e-07
4.724971276e-07
4.485810924e-07
4.557249076e-07
4.048901173e-07
1.006309091e-07
1.00203723e-07
9.798730875e-08
8.737569112e-08
7.664184312e-08
2.051900703e-08
2.015538e-08
1.814380161e-08
8.722804086e-09
1.74613526e-08
4.048139581e-09
3.985599551e-09
3.569941066e-09
2.297781672e-09
2.511798825e-09
1.339056095e-09
8.412479789e-10
6.920266587e-10
5.595959744e-10
2.599971288e-10
-4.240232671e-10
-1.289413317e-09
-3.99215173e-11
7.192879935e-11
1.206037625e-10
-6.612720857e-12
-6.549878903e-12
2.451559625e-11
4.56798854e-11
2.783047732e-11
7.662023212e-12
7.279037421e-12
7.16213943e-12
4.744467314e-12
5.507003683e-12
1.265554059e-12
1.140568759e-12
7.549823934e-13
-2.556958349e-13
-3.871906189e-12
-3.933498371e-13
-8.912746083e-13
-3.097973819e-12
-8.511118394e-12
-6.694829587e-13
-1.166257253e-12
-6.774089462e-13
1.301218701e-12
1.122709436e-11
-1.190537673e-11
4.771885605e-12
4.303514324e-12
3.798525084e-12
5.237282209e-13
-6.66366885e-13
1.959017437e-11
1.890556781e-11
1.769523189e-11
1.316301735e-11
1.218280801e-11
1.62809701e-11
1.597319951e-11
1.495260146e-11
1.467774019e-11
2.944317469e-11
2.328831971e-11
2.290867866e-11
2.413302022e-11
-7.46455129e-12
5.944010442e-13
8.412920461e-12
6.115939107e-13
-2.863491293e-11
7.57871886e-11
7.775049815e-11
8.652492276e-12
9.001263329e-12
2.562006487e-11
-5.916043695e-11
-4.142943279e-11
4.599130248e-12
4.614611538e-12
4.48310169e-12
5.363467853e-12
5.24500079e-12
-6.887791161e-12
1.334819239e-12
5.289108954e-12
3.695734341e-12
3.354342886e-12
-2.250189759e-11
-2.26124684e-11
-1.879756456e-11
-3.005181705e-12
6.912984394e-12
-9.853172648e-12
1.558626894e-13
3.961802471e-12
-2.949724409e-12
9.125297197e-12
-2.087163428e-13
3.375478181e-13
1.487414863e-12
-2.780058605e-12
-8.733042792e-12
2.100769006e-12
2.084602829e-12
2.519946143e-12
1.703024168e-12
-2.472616159e-12
1.002830129e-12
1.120009845e-12
7.01599615e-13
1.277900895e-12
2.556547587e-13
3.288807103e-12
3.156763113e-12
2.657463037e-12
-2.078962721e-13
6.35607264e-14
-2.084829764e-13
-2.258220479e-13
-4.401145852e-13
-7.98176989e-13
-7.792426267e-13
-7.884871588e-13
-7.930665796e-13
-8.00163883e-13
-7.930841154e-13
-3.836641822e-13
-7.331499654e-14
-6.761501394e-14
-6.398595131e-14
-6.515203633e-14
-7.778089306e-14
3.920766083e-14
3.037740519e-14
1.277020717e-14
-9.160868882e-16
2.218578683e-14
5.208883807e-15
5.074766874e-15
1.187801222e-14
-1.741031227e-14
-2.423603187e-14
-2.637809103e-14
-2.591166334e-14
-1.94159476e-14
-1.500295628e-14
-8.202301031e-14
-5.94977761e-14
-7.763061846e-14
-8.418528523e-14
-8.417036206e-14
-5.932096276e-14
-2.048625634e-13
-2.015351586e-13
-1.971285271e-13
-1.929241877e-13
-2.032086238e-13
-2.14398739e-13
-2.120128493e-13
-2.088630441e-13
-2.060560907e-13
-2.180538944e-13
-2.434651506e-13
-2.551680448e-13
-2.520153605e-13
-2.496905264e-13
-2.572439271e-13
3.269779473e-14
3.177615291e-14
3.094650318e-14
3.132131668e-14
3.968351303e-14
2.933906702e-14
2.796138276e-14
2.735847397e-14
2.374919179e-14
1.775692951e-14
1.715839156e-13
1.688430108e-13
1.674389603e-13
1.519359241e-13
2.125599053e-13
6.974980941e-13
7.255312824e-13
8.054158285e-13
7.24984077e-13
6.550440103e-13
8.072491415e-13
8.275334858e-13
8.413809166e-13
8.34383626e-13
7.020603405e-13
8.132216447e-13
8.321486014e-13
8.592422036e-13
1.115148297e-12
8.374022403e-13
-1.293711598e-13
-1.305280822e-13
-1.33368752e-13
-1.298300095e-13
-1.141148392e-13
-2.213282785e-13
-2.253978104e-13
-2.282419339e-13
-2.172726786e-13
-1.929909469e-13
-2.484887876e-13
-2.456081422e-13
-2.342660179e-13
-2.05709428e-13
-1.710392971e-13
-1.694189808e-12
-1.709253708e-12
-1.711829368e-12
-1.672990413e-12
-1.543321774e-12
4.052189357e-08
-7.594800354e-07
-8.71461706e-07
-2.204794922e-07
1.04042535e-07
7.298724007e-07
1.28772888e-06
-1.027636675e-05
4.640892416e-06
2.781090876e-06
-1.115352256e-06
-5.465911162e-07
1.27502249e-06
4.295416654e-07
7.113427901e-08
3.453803616e-07
-1.686665026e-06
-2.315885114e-06
5.371807809e-06
2.195109572e-06
-2.777789816e-06
4.773692679e-06
1.030306009e-05
5.820818574e-06
1.82101592e-06
3.844639318e-07
7.706631333e-08
2.110166089e-08
2.942377344e-09
1.357479999e-10
1.025813358e-10
2.448746666e-11
4.585919494e-12
-3.327857131e-12
-5.383212929e-12
-2.23727167e-11
-4.137801247e-12
1.35231886e-11
2.777157347e-11
9.776614263e-13
2.836863484e-11
6.978893499e-11
4.272798085e-12
1.924042878e-12
-1.203698921e-11
6.048959275e-12
-6.003202518e-11
-1.584508328e-12
8.777710051e-13
3.086491087e-13
-5.034956156e-13
1.697549014e-14
-5.852737223e-14
1.25562236e-13
-4.769572273e-14
-8.756753136e-14
2.79825614e-14
-2.423056609e-13
-2.595950965e-13
-1.357173308e-13
4.409778434e-14
1.839763229e-14
2.841611251e-13
3.742530423e-13
3.881646062e-13
1.711619245e-13
-1.322598251e-13
-2.24171076e-13
-1.617620138e-13
-1.461303088e-12
-2.730462291e-08
6.924994105e-09
-2.714592306e-10
-7.898731526e-10
-3.667401457e-10
-3.380555118e-08
1.911517385e-06
-2.347465127e-08
2.846783139e-09
-6.789129702e-09
-3.212518189e-07
-4.106287526e-06
-4.591556043e-07
-2.741702589e-08
2.515834233e-09
3.614784255e-06
-5.816614985e-08
-8.209851485e-07
-6.093405036e-08
-4.385240494e-08
6.340761364e-07
4.996496385e-07
1.186821191e-06
-5.222062602e-08
8.729297303e-08
-1.085591591e-05
9.295925929e-07
9.516383189e-07
2.160578571e-07
-2.692426894e-08
1.064142434e-06
4.800907751e-07
-2.678664318e-06
-2.686305383e-07
2.461708236e-09
-1.188799388e-05
-1.338800267e-06
3.126663206e-06
3.312165643e-08
2.523085474e-08
3.302218165e-06
7.179240213e-07
-2.763863104e-07
2.801555239e-07
6.917684289e-08
8.23269722e-06
-2.88518157e-07
-3.307568815e-07
-6.677426939e-07
-1.123642355e-07
2.0240533e-07
1.311024749e-07
2.147023696e-07
-1.033539388e-06
-1.311153515e-07
2.029186039e-08
2.281260441e-07
-3.280468582e-07
-7.061774318e-07
-8.540775638e-08
1.469621012e-06
2.432920522e-06
4.802914549e-07
2.997362275e-07
8.595445744e-07
1.963875775e-07
2.250850168e-06
-2.433055607e-07
-1.866879393e-07
-1.06185584e-07
3.0242362e-07
1.819523047e-06
-5.865757809e-07
-3.148173425e-07
-7.157450477e-07
2.520928622e-07
1.420310973e-06
-1.924018419e-06
-1.014066347e-06
1.148342798e-07
-1.036984074e-06
-7.899667781e-06
-2.327865648e-06
-5.000241276e-06
5.465503969e-06
-1.393823296e-06
-5.936984685e-06
-4.702326256e-06
-9.149740036e-06
1.756333912e-05
4.95018986e-06
6.775852428e-06
2.226120451e-05
6.589655901e-05
5.149883242e-06
2.462571383e-06
5.355419209e-06
9.736491437e-06
1.229937731e-05
3.432641357e-05
-3.285737794e-06
-3.575595578e-06
-4.198303235e-06
-2.922750718e-05
-5.678313248e-05
8.154773965e-06
2.278222911e-05
5.772197256e-05
0.0001123794403
0.000133516158
1.354998947e-05
2.104593269e-05
2.947373561e-05
3.40173091e-05
2.920946582e-05
6.568608668e-06
7.342715195e-06
7.384437488e-06
6.470230317e-06
4.734229573e-06
1.84737053e-06
1.720096082e-06
1.438379069e-06
1.079439549e-06
7.18205008e-07
3.690180136e-07
3.085270317e-07
2.31157887e-07
1.570572355e-07
9.759872737e-08
6.931643121e-08
5.543354636e-08
3.623837667e-08
2.693097968e-08
2.961900229e-08
1.440946571e-08
1.03581853e-08
4.489821409e-09
-1.452319397e-08
1.500306823e-09
2.662329475e-09
2.638404402e-09
1.917146062e-09
4.50964364e-10
1.354703342e-10
2.629804071e-11
-1.424096265e-10
2.267074411e-10
2.006925028e-10
7.742277422e-11
1.082493031e-10
5.816668905e-11
7.719742812e-11
-2.094173634e-11
-2.565897812e-11
3.306095358e-11
8.905568584e-11
8.466423486e-11
1.770699985e-11
4.673584055e-12
3.579031446e-12
3.215123984e-12
6.746708552e-12
-3.831388808e-12
-7.524140313e-12
1.677939588e-11
1.50751496e-11
1.022334238e-11
3.276207315e-12
-3.097178543e-11
-1.047749482e-11
-1.491674229e-11
1.184161551e-11
-2.740509716e-11
-4.743882631e-12
-3.647477528e-11
-3.111093691e-11
-1.844863562e-11
-1.739920001e-11
-2.104464614e-11
-9.691705984e-12
-2.137232806e-11
-1.369627826e-11
2.40620811e-12
4.109205231e-11
2.808741986e-11
1.817339898e-11
2.457599027e-11
2.360539696e-11
6.747216031e-11
3.509969482e-12
1.04490928e-11
1.862549695e-11
2.382763882e-11
4.587040883e-11
3.446664389e-11
2.157662515e-11
-4.39749341e-12
1.953602532e-11
-1.097110312e-11
6.6421746e-12
2.535880951e-11
-5.039771183e-12
-1.766582877e-13
6.487191832e-12
-1.166527467e-11
-1.089599494e-12
5.03233524e-12
-8.910019878e-12
4.824971609e-12
3.334426017e-12
-8.667926464e-12
-1.048253412e-12
-8.703063695e-12
3.309865487e-12
-1.380787817e-12
-2.258728181e-12
1.919131227e-12
-1.298280493e-12
8.155635815e-12
1.694312865e-11
-6.033587158e-12
6.846299113e-12
-1.487708194e-10
6.218206988e-14
5.610078368e-13
-1.406276486e-10
-5.956306018e-11
4.796863295e-12
5.956162872e-12
-2.451861079e-11
-1.449868067e-11
6.624284151e-12
4.405355811e-12
2.284281773e-12
-8.267006377e-13
-4.45872961e-13
-3.87189046e-13
1.474156801e-12
3.975758372e-13
-6.97640876e-13
1.622356869e-12
6.574198792e-13
1.232786549e-13
-1.005471972e-12
4.624700689e-13
-4.31382032e-13
7.729678107e-13
1.324344755e-13
-9.105075844e-14
-8.004195918e-13
1.351465296e-13
3.125652413e-13
4.68266834e-14
1.349672358e-14
2.708752249e-13
2.622499013e-13
-8.146103601e-14
-5.074956817e-15
-2.330087048e-13
-5.758614929e-14
-1.088573589e-14
1.624078974e-13
-5.678411509e-13
-9.711192311e-14
-3.837322893e-14
-6.040853453e-14
-7.153875446e-14
-2.529633302e-14
-1.999336616e-13
-3.891738731e-14
-1.650941051e-13
-1.139388564e-13
-1.426938934e-13
-1.433379157e-13
-1.093641558e-13
-2.633998692e-14
2.829408032e-14
-2.929134791e-13
2.904751586e-13
1.190158245e-13
2.291379647e-13
-2.66866241e-14
-1.52525197e-13
-1.857505031e-13
-2.006343972e-13
-2.195534285e-13
-2.322888096e-13
-2.117166914e-13
-1.340327085e-13
-2.265580309e-13
-2.411801077e-13
-2.220740194e-13
-1.29607765e-13
4.80776344e-15
-1.879387696e-13
-3.482860906e-14
2.839876381e-14
1.928921788e-14
1.372926471e-14
2.41482033e-14
2.035732126e-14
1.294094308e-14
1.079287023e-13
1.725628246e-13
1.297790791e-13
1.587023891e-13
1.544035265e-13
2.227662108e-13
2.263689484e-13
4.255096557e-13
-1.648835417e-13
8.663329449e-13
8.736188418e-13
9.988421615e-13
9.152215477e-13
1.014297888e-12
1.045584697e-12
1.064642194e-12
1.08436296e-12
9.736181261e-13
1.063300168e-12
1.073798117e-12
1.116548086e-12
1.040096353e-12
-2.00856005e-13
-2.875277665e-13
-1.674370249e-13
-2.226659213e-13
-2.152120154e-13
-1.762396293e-13
-2.085162822e-13
-2.485589608e-13
-2.291133742e-13
-2.04162931e-13
-2.12078759e-13
-2.053944029e-13
-2.178125197e-13
-2.764293671e-13
-3.055451381e-13
-2.232578624e-13
-4.12246964e-13
-2.248142574e-12
-1.929255382e-12
-1.998608971e-12
-1.807463129e-12
-1.950377866e-12
-1.236985404e-12
-7.263415398e-14
8.673365095e-13
-4.289040691e-12
-5.85282669e-11
3.132418612e-12
-3.904307924e-24
-8.189554958e-28
-2.145310908e-31
-5.826414214e-35
-1.52064086e-38
-3.713690173e-42
-8.446040279e-46
-1.799950921e-49
-3.627878908e-53
-6.969594154e-57
-1.282089049e-60
-2.263372483e-64
-3.838654851e-68
0
0
0
0
0
0
0
0
0
0
0
0
0
0
0
0
0
0
0
0
0
0
0
0
0
0
0
0
0
0
0
0
0
0
0
0
0
0
0
0
0
0
0
0
1.18649518e-10
-2.61095454e-10
7.450140729e-12
-5.351221857e-12
-3.35634437e-28
-8.826723731e-32
-2.517398959e-35
-7.250931118e-39
-2.029501486e-42
-5.400962261e-46
-1.350518397e-49
-3.150577435e-53
-6.844323403e-57
-1.391015392e-60
-2.66133569e-64
-4.818627559e-68
0
0
0
0
0
0
0
0
0
0
0
0
0
0
0
0
0
0
0
0
0
0
0
0
0
0
0
0
0
0
0
0
0
0
0
0
0
0
0
0
0
0
0
0
-9.339341101e-10
1.17078837e-08
-4.639167507e-11
3.997085699e-12
-3.42452437e-28
-1.056492018e-31
-3.514430111e-35
-1.177563765e-38
-3.827182516e-42
-1.177447429e-45
-3.373836962e-49
-8.92389066e-53
-2.173745931e-56
-4.886695991e-60
-1.01951444e-63
-1.987922708e-67
0
0
0
0
0
0
0
0
0
0
0
0
0
0
0
0
0
0
0
0
0
0
0
0
0
0
0
0
0
0
0
0
0
0
0
0
0
0
0
0
0
0
0
0
-2.635011972e-08
-1.562960917e-09
-3.99886595e-10
1.453477523e-10
-2.751590998e-27
-1.100930825e-30
-4.904068663e-34
-2.21237379e-37
-9.633455074e-41
-3.92871935e-44
-1.469018339e-47
-4.961196701e-51
-1.498835992e-54
-4.03629656e-58
-9.728970642e-62
-2.121412242e-65
0
0
0
0
0
0
0
0
0
0
0
0
0
0
0
0
0
0
0
0
0
0
0
0
0
0
0
0
0
0
0
0
0
0
0
0
0
0
0
0
0
0
0
0
6.256766858e-08
-1.017063701e-08
7.173629871e-10
-4.462856613e-10
-3.842407985e-11
-1.227218267e-29
-5.588656305e-33
-2.663847411e-36
-1.257682479e-39
-5.701137078e-43
-2.427568377e-46
-9.536667646e-50
-3.402810955e-53
-1.088741455e-56
-3.097844597e-60
-7.827086527e-64
0
0
0
0
0
0
0
0
0
0
0
0
0
0
0
0
0
0
0
0
0
0
0
0
0
0
0
0
0
0
0
0
0
0
0
0
0
0
0
0
0
0
0
0
-3.173305105e-08
-4.849005963e-08
-3.809216875e-09
-1.534303286e-09
-6.096940178e-11
-1.69132484e-28
-7.250528131e-32
-3.447867264e-35
-1.67035769e-38
-7.918482404e-42
-3.585512612e-45
-1.524075926e-48
-5.994265438e-52
-2.152830855e-55
-6.975875722e-59
-2.020070763e-62
0
0
0
0
0
0
0
0
0
0
0
0
0
0
0
0
0
0
0
0
0
0
0
0
0
0
0
0
0
0
0
0
0
0
0
0
0
0
0
0
0
0
0
0
5.261913333e-09
-1.538625661e-07
-2.823708259e-08
-8.135309292e-10
-7.785072505e-10
-1.381964906e-11
-1.865605736e-30
-8.659270155e-34
-4.234874066e-37
-2.063867654e-40
-9.732281104e-44
-4.358096459e-47
-1.827589268e-50
-7.09243868e-54
-2.51877977e-57
-8.098932959e-61
0
0
0
0
0
0
0
0
0
0
0
0
0
0
0
0
0
0
0
0
0
0
0
0
0
0
0
0
0
0
0
0
0
0
0
0
0
0
0
0
0
0
0
0
-3.860186611e-08
-9.611122998e-08
-1.649353443e-07
-1.42703024e-08
-1.392450705e-09
-4.43060553e-10
-3.023968293e-29
-1.311637258e-32
-6.370119395e-36
-3.162519262e-39
-1.540881681e-42
-7.199492163e-46
-3.176409193e-49
-1.307817256e-52
-4.973629213e-56
-1.730093806e-59
0
0
0
0
0
0
0
0
0
0
0
0
0
0
0
0
0
0
0
0
0
0
0
0
0
0
0
0
0
0
0
0
0
0
0
0
0
0
0
0
0
0
0
0
3.883413277e-09
-4.286407484e-08
-4.397940539e-07
-7.55431826e-08
-4.298479746e-09
-1.047268403e-09
6.178169258e-11
-7.052215983e-32
-3.283564967e-35
-1.63514127e-38
-8.171111598e-42
-3.968057429e-45
-1.83634096e-48
-7.988407915e-52
-3.231320695e-55
-1.203744303e-58
0
0
0
0
0
0
0
0
0
0
0
0
0
0
0
0
0
0
0
0
0
0
0
0
0
0
0
0
0
0
0
0
0
0
0
0
0
0
0
0
0
0
0
0
-8.085274543e-09
-2.52880397e-08
-4.048372061e-07
-2.636706522e-07
-2.064028035e-08
3.726649948e-10
-4.645533116e-10
-1.138685823e-11
-5.166087535e-33
-2.540464835e-36
-1.292830099e-39
-6.50179181e-43
-3.150227833e-46
-1.446358814e-49
-6.215721525e-53
-2.474753454e-56
0
0
0
0
0
0
0
0
0
0
0
0
0
0
0
0
0
0
0
0
0
0
0
0
0
0
0
0
0
0
0
0
0
0
0
0
0
0
0
0
0
0
0
0
-1.36375415e-08
-2.58686366e-08
-2.440848143e-07
-8.166750103e-07
-8.13901663e-08
2.431509425e-09
1.459476355e-09
2.416361296e-10
-6.746660395e-32
-3.080477784e-35
-1.549522077e-38
-7.924357765e-42
-3.968986478e-45
-1.904926535e-48
-8.631848614e-52
-3.650289931e-55
0
0
0
0
0
0
0
0
0
0
0
0
0
0
0
0
0
0
0
0
0
0
0
0
0
0
0
0
0
0
0
0
0
0
0
0
0
0
0
0
0
0
0
0
-2.339146501e-08
-1.836828878e-08
-1.592848016e-07
-1.770683953e-06
-2.024627122e-07
1.184333364e-08
2.828138843e-09
-4.99367231e-10
4.899684243e-12
-2.558574519e-32
-1.198519329e-35
-6.009419639e-39
-3.027415426e-42
-1.484749903e-45
-6.953955298e-49
-3.068177908e-52
0
0
0
0
0
0
0
0
0
0
0
0
0
0
0
0
0
0
0
0
0
0
0
0
0
0
0
0
0
0
0
0
0
0
0
0
0
0
0
0
0
0
0
0
-4.314594256e-08
-2.591892898e-08
-1.669562714e-07
-2.152920093e-06
-2.713722277e-07
7.870065475e-08
8.510436995e-09
2.158511105e-09
1.060131111e-10
-5.247888605e-32
-2.105422496e-35
-9.876496489e-39
-4.834249248e-42
-2.350535328e-45
-1.106255959e-48
-4.957362612e-52
0
0
0
0
0
0
0
0
0
0
0
0
0
0
0
0
0
0
0
0
0
0
0
0
0
0
0
0
0
0
0
0
0
0
0
0
0
0
0
0
0
0
0
0
-5.522548805e-08
-3.50137467e-08
-1.444384359e-07
-1.569160231e-06
-1.105292169e-06
2.651152589e-07
3.494597284e-08
1.457285408e-08
1.160901617e-09
-1.010673454e-28
-2.999666304e-32
-1.219061961e-35
-5.55651974e-39
-2.590093801e-42
-1.187562123e-45
-5.244101247e-49
0
0
0
0
0
0
0
0
0
0
0
0
0
0
0
0
0
0
0
0
0
0
0
0
0
0
0
0
0
0
0
0
0
0
0
0
0
0
0
0
0
0
0
0
-2.32942612e-07
-7.600169492e-08
-1.623443622e-07
-1.543477066e-06
-2.947119211e-06
9.823045264e-07
1.39414253e-07
4.366389371e-08
4.449606293e-09
1.139403321e-10
-7.590143497e-29
-2.326506945e-32
-9.208085277e-36
-3.965109926e-39
-1.72259236e-42
-7.309203508e-46
0
0
0
0
0
0
0
0
0
0
0
0
0
0
0
0
0
0
0
0
0
0
0
0
0
0
0
0
0
0
0
0
0
0
0
0
0
0
0
0
0
0
0
0
-7.247761493e-08
-1.215076654e-07
-5.575661696e-07
-4.423228667e-06
5.943630186e-06
3.681762956e-06
4.052414848e-07
-2.133784115e-07
3.058475399e-09
1.73111672e-10
-2.154045952e-28
-4.121225571e-32
-1.273187038e-35
-4.808950009e-39
-1.921296594e-42
-7.643141532e-46
0
0
0
0
0
0
0
0
0
0
0
0
0
0
0
0
0
0
0
0
0
0
0
0
0
0
0
0
0
0
0
0
0
0
0
0
0
0
0
0
0
0
0
0
1.11622963e-06
-1.934646865e-07
-4.362256533e-06
-6.588423047e-05
2.160934556e-05
3.986010891e-06
3.705384624e-07
1.373700198e-07
4.035915047e-09
3.752980864e-11
4.540951014e-12
-1.518552779e-28
-3.070975786e-32
-9.367617968e-36
-3.355500105e-39
-1.245726003e-42
0
0
0
0
0
0
0
0
0
0
0
0
0
0
0
0
0
0
0
0
0
0
0
0
0
0
0
0
0
0
0
0
0
0
0
0
0
0
0
0
0
0
0
0
3.083910683e-06
2.947040412e-07
-1.067758268e-06
-2.912578972e-05
2.297101211e-05
4.295808473e-06
3.565760573e-07
6.72052049e-08
4.819572869e-10
-2.241368594e-10
-8.891941104e-12
-1.018270168e-24
-1.093637435e-28
-2.281968389e-32
-6.825434195e-36
-2.331630678e-39
0
0
0
0
0
0
0
0
0
0
0
0
0
0
0
0
0
0
0
0
0
0
0
0
0
0
0
0
0
0
0
0
0
0
0
0
0
0
0
0
0
0
0
0
-9.117922288e-06
-3.577266876e-05
-0.0003029638403
5.232291504e-05
1.969442553e-05
2.156788277e-06
1.415867232e-07
1.568594941e-08
1.372378009e-09
-6.379415674e-10
-1.530415308e-10
7.51422941e-11
-5.514212709e-28
-6.494946516e-32
-1.407235681e-35
-4.163168927e-39
0
0
0
0
0
0
0
0
0
0
0
0
0
0
0
0
0
0
0
0
0
0
0
0
0
0
0
0
0
0
0
0
0
0
0
0
0
0
0
0
0
0
0
0
-1.523183137e-06
-0.0003480204529
0.0001177543447
5.195440196e-05
8.564218702e-06
7.819363125e-07
8.036442508e-08
6.408467017e-09
7.58102929e-11
-6.411574004e-10
-3.078728627e-10
2.528859872e-10
-1.832590945e-12
-3.632283863e-28
-4.629437274e-32
-1.031780834e-35
0
0
0
0
0
0
0
0
0
0
0
0
0
0
0
0
0
0
0
0
0
0
0
0
0
0
0
0
0
0
0
0
0
0
0
0
0
0
0
0
0
0
0
0
0.0001432591349
0.000157830944
6.506394984e-05
1.547808462e-05
2.199007754e-06
2.069910858e-07
-1.293919974e-08
-1.036072214e-09
-1.133502131e-09
-8.961948502e-09
-9.795555159e-10
-2.66712136e-10
2.127257184e-10
-1.578144227e-11
-2.416564724e-28
-3.284090239e-32
0
0
0
0
0
0
0
0
0
0
0
0
0
0
0
0
0
0
0
0
0
0
0
0
0
0
0
0
0
0
0
0
0
0
0
0
0
0
0
0
0
0
0
0
9.421014882e-05
4.241950416e-05
1.395939254e-05
3.045477699e-06
4.50312281e-07
5.095444791e-08
5.146476487e-09
6.449869973e-10
1.751227891e-10
-1.211892704e-09
8.275669386e-10
-1.009842385e-09
-3.34213042e-10
-3.45760193e-11
-1.71456871e-27
-1.383950239e-31
0
0
0
0
0
0
0
0
0
0
0
0
0
0
0
0
0
0
0
0
0
0
0
0
0
0
0
0
0
0
0
0
0
0
0
0
0
0
0
0
0
0
0
0
1.696193983e-05
7.269449161e-06
2.31043334e-06
5.144275405e-07
8.22934972e-08
1.039589613e-08
1.787223353e-09
2.148321161e-10
2.023480826e-12
-6.66815486e-10
-1.138116255e-09
-1.402298057e-10
-9.617304953e-10
-2.207878491e-10
-8.757801908e-11
-1.081804186e-27
-1.748570583e-37
-3.164842994e-41
-9.024469136e-45
-2.888822782e-48
-9.377940043e-52
-2.973421067e-55
-9.013861563e-59
0
0
0
0
0
0
0
0
0
0
0
0
0
0
0
0
0
0
0
0
0
0
0
0
0
0
0
0
0
0
0
0
0
0
0
0
0
2.607844209e-06
1.101784775e-06
3.486808878e-07
8.009821282e-08
1.214626606e-08
1.591016551e-09
3.315994299e-10
1.791445588e-10
9.370186183e-11
6.590289958e-11
-7.79166226e-10
1.001428481e-09
-2.242975038e-10
-7.990351162e-10
-1.261588378e-10
1.061488035e-10
-2.538735828e-32
-2.380698054e-36
-4.312171164e-40
-1.103704169e-43
-3.265833091e-47
-1.005817648e-50
-3.058717102e-54
0
0
0
0
0
0
0
0
0
0
0
0
0
0
0
0
0
0
0
0
0
0
0
0
0
0
0
0
0
0
0
0
0
0
0
0
0
3.822236272e-07
1.562105832e-07
4.41654825e-08
1.074878124e-08
3.792953431e-09
7.389726232e-10
5.873437785e-11
-3.151879187e-10
-5.211224592e-11
-1.429085186e-10
2.833701167e-09
-2.430196247e-09
-1.564076667e-09
-1.124468545e-09
-7.5938726e-10
6.03584507e-11
6.841571079e-11
-3.197702326e-31
-3.039263607e-35
-5.134882915e-39
-1.240191641e-42
-3.509002396e-46
-1.039313664e-49
0
0
0
0
0
0
0
0
0
0
0
0
0
0
0
0
0
0
0
0
0
0
0
0
0
0
0
0
0
0
0
0
0
0
0
0
0
5.029916134e-08
2.008273227e-08
6.314618016e-09
-6.278938041e-10
5.172764353e-10
2.157906203e-10
3.852706189e-11
-6.076070384e-12
5.942755451e-11
-3.317929175e-10
-2.064619534e-12
-4.379543656e-10
-1.708582753e-09
-9.149417204e-10
-4.328313767e-10
-7.420818474e-10
-1.122690521e-10
-2.466165379e-27
-1.848230997e-31
-1.87050368e-35
-3.287183001e-39
-7.974865771e-43
-2.221566999e-46
0
0
0
0
0
0
0
0
0
0
0
0
0
0
0
0
0
0
0
0
0
0
0
0
0
0
0
0
0
0
0
0
0
0
0
0
0
8.678037417e-09
3.2508375e-09
1.653146e-09
3.287330221e-09
2.381343684e-10
6.575046161e-11
2.324526656e-11
5.687506694e-12
-1.029643934e-11
9.332070406e-12
1.033467813e-10
7.048829611e-11
-5.578264293e-09
-2.107883393e-09
8.99076731e-11
-7.193631435e-10
-8.581959429e-10
-2.610395927e-11
-1.433206307e-27
-1.039144258e-31
-1.114742734e-35
-2.012807247e-39
-4.864603707e-43
0
0
0
0
0
0
0
0
0
0
0
0
0
0
0
0
0
0
0
0
0
0
0
0
0
0
0
0
0
0
0
0
0
0
0
0
0
1.777131125e-09
-1.616031564e-10
-2.466583492e-10
4.967567918e-11
7.803985349e-11
3.129325556e-11
7.36142041e-12
-1.668130652e-11
7.971844837e-14
3.996405558e-11
-2.073892519e-11
1.209594141e-10
-6.891973963e-11
-7.665317392e-10
-2.432109186e-10
1.532299138e-11
-5.920935974e-10
-4.89380976e-10
6.825532603e-12
-6.603857593e-31
-4.700835552e-35
-5.413090538e-39
-1.011347367e-42
0
0
0
0
0
0
0
0
0
0
0
0
0
0
0
0
0
0
0
0
0
0
0
0
0
0
0
0
0
0
0
0
0
0
0
0
0
3.279168695e-10
1.390779402e-09
4.373330826e-11
-3.56092924e-12
4.21634064e-11
1.424636745e-11
3.48403884e-12
-1.668031566e-11
-7.615967531e-12
-9.909850104e-13
2.833312215e-11
-1.110925268e-11
3.828059312e-11
-4.2639905e-10
-1.038543084e-09
-1.617741054e-09
-3.547389516e-10
-7.616481489e-10
-1.417763081e-11
2.034962718e-11
-3.236051554e-31
-2.316126011e-35
-2.818549315e-39
0
0
0
0
0
0
0
0
0
0
0
0
0
0
0
0
0
0
0
0
0
0
0
0
0
0
0
0
0
0
0
0
0
0
0
0
0
8.464271587e-11
2.954388096e-11
2.757094731e-11
3.219427165e-11
3.158496445e-12
3.986908644e-12
1.738020549e-13
-3.174828969e-12
-5.996747966e-12
-7.223238671e-13
-5.523484144e-12
-5.381924637e-14
1.311753574e-10
1.615504808e-10
-4.854358749e-10
-2.509308478e-09
5.269523458e-11
-5.728520166e-10
-8.035828641e-10
6.650655827e-11
-1.843230607e-30
-1.397384013e-34
-1.034309059e-38
0
0
0
0
0
0
0
0
0
0
0
0
0
0
0
0
0
0
0
0
0
0
0
0
0
0
0
0
0
0
0
0
0
0
0
0
0
1.989693272e-11
5.896460855e-11
4.934260175e-11
1.46116902e-11
-7.784415479e-11
8.182295607e-12
-2.690557342e-12
-1.401862161e-11
1.092252708e-10
3.164846702e-11
2.174112701e-11
-2.105884643e-11
-3.501236389e-11
-2.103432007e-11
-2.612585294e-10
-9.042288008e-10
-2.274085325e-09
1.19069466e-09
-7.054688834e-10
-8.004325647e-10
-9.520885515e-11
-9.202727871e-31
-6.146150061e-35
0
0
0
0
0
0
0
0
0
0
0
0
0
0
0
0
0
0
0
0
0
0
0
0
0
0
0
0
0
0
0
0
0
0
0
0
0
2.115370008e-11
4.755848603e-11
1.73100026e-11
-3.723911689e-12
-1.9152912e-10
-1.784061872e-10
-2.559354141e-10
-1.645364222e-10
1.500931488e-10
-1.371098789e-11
2.52535335e-11
-1.389203932e-11
-4.985152096e-12
1.881441696e-10
8.246010689e-11
-4.21128039e-10
-1.936403755e-09
-6.376459875e-10
-7.252947787e-10
-7.572434402e-10
-1.577418463e-11
-3.744189304e-30
-4.017703147e-34
0
0
0
0
0
0
0
0
0
0
0
0
0
0
0
0
0
0
0
0
0
0
0
0
0
0
0
0
0
0
0
0
0
0
0
0
0
-1.902894255e-11
-1.291710114e-11
4.148320937e-12
9.726907563e-11
-7.094267114e-11
-9.364682272e-11
-4.685805838e-10
-3.441763757e-11
-2.343070624e-10
-5.351556657e-11
1.611098211e-12
1.896107013e-11
-1.557049428e-11
2.472635872e-11
1.172857638e-11
-3.081182359e-10
-9.164868996e-10
-1.724665357e-09
1.19366503e-09
-6.886585463e-10
-7.942994823e-10
1.089388209e-11
-2.045828759e-30
0
0
0
0
0
0
0
0
0
0
0
0
0
0
0
0
0
0
0
0
0
0
0
0
0
0
0
0
0
0
0
0
0
0
0
0
0
-2.287144493e-11
-1.848149079e-13
2.085227001e-11
7.592172156e-11
-1.077760784e-10
-1.399477613e-10
-3.598934009e-10
-3.797026691e-10
-1.937190284e-10
1.51034122e-10
2.063462917e-11
4.262634394e-11
1.515750267e-11
-1.239643426e-11
1.415971367e-11
1.278576844e-11
-6.920935503e-10
-1.978980473e-09
-9.133563568e-10
-8.406310741e-10
-6.855441929e-10
-8.633312201e-10
-3.025894821e-11
0
0
0
0
0
0
0
0
0
0
0
0
0
0
0
0
0
0
0
0
0
0
0
0
0
0
0
0
0
0
0
0
0
0
0
0
0
-2.494537094e-11
1.096841415e-11
2.922242713e-11
3.069767624e-11
1.441413524e-11
-1.147835814e-10
-1.559391901e-10
-3.767366397e-10
-1.832109552e-10