/*--------------------------------*- C++ -*----------------------------------*\
  =========                 |
  \\      /  F ield         | OpenFOAM: The Open Source CFD Toolbox
   \\    /   O peration     | Website:  https://openfoam.org
    \\  /    A nd           | Version:  10
     \\/     M anipulation  |
\*---------------------------------------------------------------------------*/
FoamFile
{
    format      ascii;
    class       volScalarField;
    location    "0.02499901733";
    object      ddt0(epsilon);
}
// * * * * * * * * * * * * * * * * * * * * * * * * * * * * * * * * * * * * * //

dimensions      [0 2 -4 0 0 0 0];

internalField   nonuniform List<scalar> 
5170
(
-3290.419038
6781.280951
3861.565034
-11662.66381
76251.78733
-5161.250094
-153.1811066
907.4436959
4.761693336
146454.2022
-18026.35849
-23121.38212
-12058.80548
-3306.077185
-226584.3963
29060.49246
17674.11604
6657.104022
-2212.211354
-76992.48703
16256.82179
62429.24368
37360.0945
2050.496318
-163515.4891
-63379.89506
-116319.9441
-90786.37978
4664.993681
-1000580.15
370.7068119
-12788.28831
-77441.56597
-25335.82804
-1003500.226
38203.51266
45809.4329
81000.39563
109459.1391
-1053584.077
18107.55427
31226.81778
-12666.18534
-51819.24056
-1026693.171
-12948.50419
16151.38416
56290.33493
-541757.3681
-1127765.205
-19526.14446
-9411.502754
19658.88308
236489.3842
-1252909.293
-4022.207423
-19297.99451
-26391.24395
581187.6633
-1328323.439
7343.101788
-10679.38371
-40153.19069
325188.719
-1336512.123
7574.661446
2441.729187
-16540.53152
-100396.3152
-1352695.419
2154.795393
9144.608066
-23.38072066
-262568.8799
-1367680.992
-3500.374084
5972.779821
15827.83285
-198895.9905
-1461085.41
-3145.213266
-2346.979508
16620.60422
41425.9692
-1485859.27
2237.28285
-2194.188997
-24872.57398
228924.4303
-1459389.879
1965.209196
188.130774
-32533.75677
163532.9831
-1405176.872
1134.100844
3999.043298
-11369.08682
-162245.692
-923893.8082
52377.40844
432.8805332
103.3752249
-1051.955878
48491.31646
53732.32026
205.3801926
59.61233019
-9.659462937
49028.62366
30418.99025
67.43714318
-12.76816222
5.096109742
22539.68586
21887.47211
19.16062957
20.35072813
-95.19002503
16304.2628
21842.85456
-23.52777909
27.37361954
-164.4031936
20615.23296
23645.77639
-63.00700843
-30.7954244
60.55134464
28067.26657
25248.40891
-21.2256189
136.1615971
463.2401215
40250.56272
24057.94717
-65.30316392
-98.49571453
123.4475601
50847.49027
34119.56078
17.67894743
19.72309655
1298.160142
57010.61826
47331.99573
286.8233324
-79.76196606
3033.292295
64736.74912
40041.60836
-272.1737439
-545.9564029
-4537.013323
56593.97896
36033.33656
133.8958447
-276.4808927
-6396.015784
77586.80129
45353.13104
876.1207219
3240.117228
29209.79117
95846.4287
75401.44606
-432.8183098
-377.3759795
1083.611877
71940.45914
72555.62327
162.8181989
4441.06076
-82633.29251
93750.63185
74820.44379
1549.534891
-5077.93507
11815.27014
170750.2974
77611.80628
1599.580641
16623.20888
58585.96649
196852.931
97993.27951
-323.3699888
8704.602147
55441.3454
166605.3513
93845.67751
-1243.444867
-3.95737508
-17368.68432
124176.6639
277856.9115
15162.66946
16896.80102
-37253.48832
290909.823
4115.953244
3055.423884
27949.25812
-110195.5176
-388813.4357
-11072.18259
9588.413142
66198.00855
210007.7771
572769.3955
-1129.70539
-10583.07091
-84503.97174
-165251.9448
-65256.0822
-10620.20108
27404.65946
249655.5394
552236.9713
341631.335
-7210.592196
-6429.075076
98537.7844
253022.5231
362954.7531
-4957.981044
-54272.67965
-401802.5675
-75489.30825
402563.1512
-7775.938197
-28251.56963
-228877.1013
-342201.702
-418940.7249
5320.967513
-10523.59063
12492.75789
-115543.8685
-332493.4788
13808.57545
58420.25841
301296.446
291102.7173
146388.1685
34946.69171
97655.20993
253049.7322
132336.9195
-8409.13566
40700.39625
46608.56546
147893.0215
240216.0676
290157.795
-125529.1572
-36937.3896
68089.63713
143620.522
277647.5006
424006.8684
302708.6579
141326.7706
134899.5984
359061.3978
-181105.9209
-71694.70582
193735.3479
589202.8631
881429.483
168876.7093
319457.2404
388534.4772
293776.3522
-2617.380552
58897.90194
-226813.5656
-427330.925
-374959.2797
-286520.7933
-964159.2257
-703618.8933
-383950.8611
-53445.17293
122330.6286
180688.8566
139523.9565
-212086.1921
-736914.8072
-1637649.981
324645.8445
-349736.106
-1093174.126
-2414366.597
-4617170.063
-2192738.8
-3054026.373
-5044747.44
-8490372.642
-13301788.3
-11937056.07
-13350940.21
-18337865.52
-22538544.58
-24858287.42
-23023053.51
-22243340.78
-19690609.58
-16849885.64
-12854888.55
-7482739.197
-6935181.41
-5778248.408
-4399930.815
-3428538.769
-20493.64863
714685.8088
2266506.163
3401905.007
7340599.006
6850759.075
7612059.858
8476100.921
10640121.36
11154991.99
9563681.174
9187905.915
9134243.518
9136943.731
9070864.986
6422714.598
6386101.268
6349243.994
6282492.359
6153456.581
4042795.891
4043952.13
4000842.616
3940864.442
3849760.757
2427834.219
2425109.275
2395821.666
2354668.018
2301891.176
1428437.991
1419740.944
1406074.36
1381952.161
1347789.705
839812.2292
839478.5744
830101.4052
817581.1422
798332.7385
511597.829
509515.8327
505453.8855
497370.6611
490416.8327
318979.7088
319201.4178
316839.8995
312333.6599
308334.1322
201855.6411
201577.6141
199883.0209
197812.3467
195532.4691
125097.51
124445.4478
123865.727
122905.8815
121139.2282
74066.1284
74154.9298
73956.98045
72974.90504
72974.0972
42365.13881
42085.79177
42111.89179
41786.94361
41666.15012
23136.43746
23048.64099
23139.67585
22913.71876
23054.52176
12096.29527
12497.32109
12427.80109
12315.50138
12046.68448
6791.920065
6603.602795
6561.913621
6753.807645
6430.192836
3757.474703
3629.426894
3635.790939
3698.654254
3578.806777
2093.72242
2129.282423
2143.147426
2106.669641
2232.689199
1364.677671
1323.450507
1341.104286
1339.485648
1392.188241
888.6191991
896.302042
947.6957556
884.1711591
1018.959432
640.7258801
681.0606022
678.4200906
669.347027
637.6604603
516.0549801
523.2589436
512.466449
521.1645696
518.6604169
413.2611558
416.0269043
409.7109327
422.9450736
404.8313506
350.2654231
333.9705558
327.8291929
339.8269958
357.2345385
291.5149283
273.7470862
276.1226916
278.1414192
294.9098701
239.5517424
232.7550473
232.4622591
236.7862862
252.2292302
197.7317029
203.9909071
200.6713676
198.4097869
213.2186002
171.1636623
175.4544961
179.133581
170.1098249
183.6326704
169.9497199
147.7835226
147.1777418
160.0417937
139.6259204
129.421574
133.7966438
131.8741509
131.6203026
144.9204498
121.5737723
109.3530138
120.3089918
110.7052928
119.1746018
102.7992672
100.0160481
98.55297987
102.0193526
100.0975332
84.39819555
89.82506581
87.90941693
90.1372612
75.52940568
74.95515139
79.23261216
79.28418802
79.64506711
67.89469423
74.17699566
67.49764833
73.81272002
69.87757678
62.11227261
64.9944226
63.18503293
62.55354884
65.45880798
55.44172942
56.61494967
56.51396544
57.42991661
57.02602757
48.65291643
51.47603157
48.90394035
51.82321602
50.97226267
44.12255871
45.12570773
45.03707036
45.25885713
45.82586165
40.29445102
40.30836501
40.25944174
39.06792526
41.78450364
33.51441493
34.82049916
35.5852579
34.15462996
35.59038176
34.32488241
30.87748131
30.36738863
30.44785867
30.55439413
29.94946491
27.99521093
28.03753311
28.19940302
27.96220089
26.99232173
23.53557142
23.78012203
24.02540033
23.75927989
23.0411674
25.87882468
25.38262945
25.6306965
25.45489722
25.29230941
17.92080543
17.76661334
17.84001013
17.75270483
18.05091937
2336752.94
117603.2752
-1224752.371
382731.847
341883.0942
386015.9909
-274529.226
-403682.4593
190379.177
-20095.78768
209395.7098
401055.9853
307630.677
1420143.085
-141765.4513
606749.4441
-607954.4767
-2913960.565
-7128270.368
-17848893.15
-23887240.47
-10368078.92
-1129587.139
9590481.985
11526802.68
9027575.103
6095399.729
3777823.206
2241372.25
1324753.642
788373.3885
473777.2966
301043.2809
192058.4824
121061.6054
70885.48126
40543.61852
22048.1789
13304.23039
7179.285296
3969.043773
1844.903411
1181.234505
590.1751811
846.6903942
554.6599017
458.3096861
278.8829753
232.9662738
170.84652
170.8766024
156.6142231
196.2319238
87.57765626
109.1943706
98.804299
133.9875675
117.8191649
104.6412958
88.86740961
85.88985761
72.4923808
62.45447996
61.85520746
37.2541906
33.00726088
31.81539548
25.55641372
24.72958978
16.41557173
-1070646.071
350984.6538
10667.95143
77794.47489
-1417.559245
324845.9487
-1197401.49
-662916.2821
78537.38156
9823.28023
729479.5378
2862247.664
3096950.762
863868.5526
50753.07982
2815455.073
2734440.886
-517276.6979
-475291.0728
-190712.7229
1026171.139
1120163.364
1026216.603
-886254.0019
-92577.22653
438685.3443
852183.4497
1169325.561
795143.5253
408754.5952
-24311.41283
-201053.3712
34.85274235
971213.5907
620384.3224
-343132.9661
-174390.5239
69957.664
-543710.2338
674651.7395
79829.58534
237366.9182
73908.7363
1040453.532
-244359.2111
81800.71915
-26007.60116
-9618.089689
280463.7268
-574369.1332
235533.0302
458875.1426
419593.5836
-43652.58751
383840.0051
511100.3925
634599.1162
373710.4041
133594.277
-324242.1497
724211.5273
579941.1068
264167.8959
384920.9605
253394.6185
1022522.256
1105477.039
793088.2295
-101428.1324
-1386268.558
-710691.4953
-1003223.764
-1063578.475
-1659801.337
-1006231.624
-218380.4687
-487373.6784
-1322993.18
-1531057.109
-4480602.41
-555843.492
-1446977.875
-2197177.033
-3680908.66
-6639766.834
-4269847.929
-5504368.788
-9537503.775
-15992742.52
-22447105.21
-10502858.66
-19309998.55
-32067609.5
-29719386.7
-11482076.58
-24640733.81
-31882092.93
-24825519.62
-7131221.856
7705023.336
-21155887.19
-14182064.86
-5564195.084
1917114.913
12193556.63
-7249368.986
-2976615.17
4418212.986
13437992.35
13538154.49
1843706.548
9438973.8
14157295.08
14262895.11
11971188.5
12011200.88
13543064.86
13802018
12416381.64
9986931.431
11845073.88
11908507.69
11183937.19
9742365.761
7853406.119
8964055.963
8608582.33
7876148.034
6822088.574
5588707.972
5975949.811
5662966.143
5152249.965
4490535.813
3750298.693
3711310.892
3503672.679
3193638.763
2808204.366
2385328.441
2213790.568
2090653.515
1914209.807
1699376.102
1464593.66
1300188.834
1232012.678
1135260.085
1017902.503
890308.8361
772528.2002
735954.337
683656.3971
620612.2867
551492.0599
474844.8419
454180.9189
426074.4196
392048.9227
354271.4973
300221.1592
289464.2049
273966.9302
255551.2924
234304.8507
191584.402
185746.7083
177625.9112
167085.253
155310.2345
119633.424
116922.8831
112422.7193
106747.9805
100029.4993
72043.3832
70618.3738
68410.21844
65305.30682
61686.92441
41420.43206
40858.72829
39721.58441
38229.55987
36269.59459
22937.3536
22727.38824
22221.34238
21492.67337
20558.631
12295.6323
12346.75548
12156.42574
11814.17481
11387.10282
6646.583914
6711.070524
6635.77725
6488.689692
6302.706443
3689.415704
3737.3214
3701.973348
3662.015231
3565.55797
2194.558013
2188.445138
2181.962207
2160.775149
2129.837634
1382.533033
1378.626121
1378.048754
1370.00685
1356.959441
964.0595167
937.7411738
940.9890164
942.2155121
929.3530473
673.2722137
689.1071605
690.7915533
688.3697447
686.5315506
527.2533933
530.8905215
534.6405459
527.6025379
532.4398085
419.1652554
421.1758298
425.7651115
420.9770012
423.8110029
348.0522973
341.8368816
345.7226186
341.3745219
345.4257489
286.8357696
282.1465004
284.2793482
283.6135947
284.3101166
243.059075
238.9981473
237.5633424
241.2537499
239.3972585
206.8369758
203.1953926
205.4070673
204.8995556
205.7699203
178.455039
176.7664363
178.4704861
178.323435
179.6252361
149.9171358
154.1558083
156.4874024
155.2179069
157.2103416
137.0467961
133.6311176
135.4922197
135.9349119
136.6558201
116.0292669
116.3714046
117.8320062
118.2726038
119.1722811
101.1172599
101.329638
102.9770589
103.2419492
104.1246531
84.86600777
89.89043535
90.31988711
91.3958059
91.85196678
75.793266
79.93946339
80.61531122
81.30216026
81.94729453
68.37672931
72.08127406
72.35708198
73.45713262
73.70328005
61.85237235
64.47635625
65.06820307
65.78765919
66.19846448
54.81683288
57.768178
58.31690993
58.8158621
59.28355552
49.17151863
51.52861033
51.9130004
52.34195197
52.95278639
44.17920431
46.03494785
46.57494599
46.726558
47.39359364
38.64409737
40.82325905
41.14891816
41.56394234
41.9821012
35.14225717
35.75194634
36.0296983
36.41291409
36.79380426
30.51840156
31.04268899
31.32877151
31.62622387
31.94004339
27.7835097
28.33145335
28.44718388
28.80539088
28.88571609
23.50336543
23.65062075
23.62094518
23.73959535
23.69216871
25.18541226
25.08600528
24.92184793
24.80363878
24.51512429
17.49206517
16.73106612
15.55229908
14.33766465
13.33413179
148.0061272
-3.943934285
-0.743144973
-0.09628894787
-0.02082321433
-0.009245033784
-0.006242846173
-0.004870021049
-0.003912283068
-0.003289484433
-0.002980525945
-0.003015235872
-0.003651380831
-0.005845771111
-0.005941004981
-0.00579710614
-0.005546169953
-0.00528231992
-0.004929112385
-0.00447716564
-0.003925439505
-0.003320620292
-0.002619908617
-0.001951644446
-0.001387110312
-0.0007764531139
-0.0001668012502
0.0004137314088
0.0009488709293
0.00118483658
0.001405215928
0.001595704663
0.001707265638
0.001803127652
0.001910040046
0.001961994117
0.001935183316
0.001918073575
0.001862877652
0.001783728878
0.001677274468
0.001562144878
0.001407065637
0.001250044374
0.001087625804
0.0009345772238
0.0007929777784
0.0006365493152
0.0004941731732
0.0003590499281
0.0002473674941
0.0001360026942
0.0001133363496
0.0001012771366
0.0001440287142
9.276405445e-05
0.0001597530568
0.0003153014057
0.0003066254123
0.08840318364
419.4353148
-3.899260259
-0.9669241514
-0.2969656697
-0.08342688285
-0.0445580297
-0.03021974859
-0.0231228087
-0.0171329375
-0.01293623431
-0.009953298106
-0.008222658582
-0.006253776438
-0.002253240976
-0.0003148195273
0.000888617416
0.001706649741
0.00234861192
0.002912075861
0.003408222034
0.003779815378
0.004010609628
0.004134529163
0.004236348133
0.004312989409
0.004330188678
0.004296567611
0.004205096401
0.00407324993
0.003907850523
0.003730178249
0.003448202973
0.003188962835
0.002957360308
0.002719408995
0.002490692337
0.002280029782
0.00206971619
0.001879905491
0.001716410083
0.001576524671
0.001435548995
0.001294448488
0.001160524926
0.001038302402
0.0009237524341
0.0008070410736
0.0007122548676
0.0006163268077
0.0005422470272
0.0004755622927
0.0004291031416
0.000332470973
0.0002494019728
0.0001207247553
0.0001401900691
0.0003111609312
0.0006995454595
0.0003662421189
0.08459982238
130.943664
-71.73899164
-3.597230857
-0.6844000464
-0.2920376636
-0.1415595837
-0.09998135009
-0.07324306406
-0.05136724605
-0.03511102068
-0.02386737639
-0.01561195481
-0.009486221687
-0.006264457983
-0.004126626555
-0.002670925388
-0.001659323186
-0.000585750046
0.0003586306766
0.00105151746
0.001099472146
0.001014079226
0.0008730813282
0.0007559025873
0.0006631683342
0.0005846411307
0.0005138749497
0.0004512477383
0.0004003291339
0.000358081711
0.000327260127
0.0003050617113
0.0002921228878
0.0002859068643
0.0002794492545
0.0002398178301
0.0002062142345
0.0001805727194
0.0001608572945
0.0001439785047
0.0001330782016
0.0001246980844
0.0001143303092
0.0001265055463
0.0001403201133
0.0001429907319
0.0001406899007
0.0001401625358
0.0001353664433
0.000127247517
0.0001132555226
9.716362e-05
7.548251704e-05
5.618156354e-05
5.45303184e-05
0.0001212359427
0.0002663427222
0.0003775265327
-0.001523218556
0.08148780385
-41071.8715
-2129.49427
-48.15917778
-3.954480108
-1.008958718
-0.4065510986
-0.2764256706
-0.1882959313
-0.1322582965
-0.0926595871
-0.06536223006
-0.04667136415
-0.03346005676
-0.0251506752
-0.02008943986
-0.01685551648
-0.01414624293
-0.01190485046
-0.01014962509
-0.008828859855
-0.007604572072
-0.006528504843
-0.00564203475
-0.004890064223
-0.004253620243
-0.003696399215
-0.00314323716
-0.002665961334
-0.002261569214
-0.001916680922
-0.001619284025
-0.00135540464
-0.00112298046
-0.0009211355459
-0.0007521839227
-0.0006132167605
-0.0004855385964
-0.0003778105944
-0.0003137622386
-0.0003434961854
-0.0003156935159
-0.0002547783059
-0.0001976302244
-0.0001692296974
-0.0001522201395
-0.0001079873603
-6.338657154e-05
-2.414131682e-05
5.465338135e-06
2.619795937e-05
3.966913528e-05
4.624997921e-05
4.955790786e-05
4.837199646e-05
6.63145254e-05
9.245847497e-05
0.0001766579173
-0.0001985286964
-0.0059496367
0.07786527212
-17221.4178
-3351.658776
-365.4011831
-50.28263084
-6.207878557
-1.316874196
-0.7423928579
-0.4771386655
-0.3242192396
-0.2213656805
-0.1514234215
-0.1043923691
-0.07288494343
-0.05299287848
-0.04015615613
-0.03081104651
-0.02443039459
-0.02026090145
-0.01742702645
-0.01516007879
-0.01313420559
-0.01140046472
-0.009913643995
-0.00862519155
-0.007516685525
-0.006553326068
-0.005791360681
-0.005120037577
-0.004509540883
-0.003959210699
-0.003468984101
-0.00302485973
-0.002627575266
-0.002272550908
-0.001939629217
-0.001636156963
-0.001367742575
-0.001133264216
-0.0009164245181
-0.0006576344975
-0.0004906343012
-0.0003714375039
-0.0002801828873
-0.0001813374232
-0.0001107662777
-2.815755115e-05
3.760238285e-06
2.612766596e-05
4.212214556e-05
5.326501022e-05
5.915554377e-05
5.854485157e-05
5.42429679e-05
4.761965808e-05
3.311858969e-05
3.655501129e-05
-2.757916331e-05
-0.001023466547
-0.009824070122
0.07586582715
87390.36299
13093.50732
115.8111326
-328.1104805
-32.77287807
-4.11002296
-1.26695101
-1.032890426
-0.7541019287
-0.5237939562
-0.3491442655
-0.2291180056
-0.1486734459
-0.09651758425
-0.06393226161
-0.0440079171
-0.03175470513
-0.02416585252
-0.01916578848
-0.01552762768
-0.01283850612
-0.01076055537
-0.009056196186
-0.007613575584
-0.006467241293
-0.005481741809
-0.004625511534
-0.003910515772
-0.003299651786
-0.002772466451
-0.002322659374
-0.001944323298
-0.001621662935
-0.001343608443
-0.001104290755
-0.0009030060985
-0.0007333562597
-0.000595288404
-0.0004785112261
-0.0003782121756
-0.0002873042704
-0.0002169312187
-0.0001764021422
-0.0001470441615
-8.651682047e-05
-7.139321237e-05
-3.780579213e-05
-2.228835002e-05
-1.53495263e-05
-2.400814441e-06
1.619339559e-06
2.078214098e-06
-3.261568405e-06
-2.357469543e-06
-2.065257939e-05
-8.483880501e-05
-0.0003934970144
-0.001909197849
-0.01134337752
0.07306795171
188671.286
61088.51941
4898.133365
-3079.061682
-354.2235147
-10.51312843
-1.274912088
-1.411150438
-1.111237201
-0.7587411795
-0.5064266848
-0.3320405022
-0.2146585644
-0.1390561104
-0.0912681608
-0.06186918426
-0.04387373294
-0.0330683293
-0.0261240781
-0.02087881632
-0.01696870775
-0.01410409578
-0.0118029822
-0.009874035131
-0.00832698202
-0.007027669837
-0.005931418587
-0.005039149665
-0.004248351545
-0.003585157789
-0.003035247224
-0.002552110967
-0.002138881461
-0.001798950098
-0.001508119051
-0.001264019898
-0.001061845977
-0.0008918163961
-0.0007496376975
-0.0006275490843
-0.0005206144424
-0.0004212237227
-0.0003220324388
-0.000251946977
-0.0002468689053
-0.0002414016658
-0.0002128011146
-0.0001701095541
-0.0001375955683
-0.0001138754289
-0.0001049715663
-9.304771283e-05
-8.920217861e-05
-0.0001065780209
-0.0001205282823
-0.0002907711725
-0.001037327785
-0.002777936818
-0.01121585926
0.0577819547
81917.55096
67031.46716
-23575.33883
-23036.19535
-3475.811128
-25.73225377
13.53571826
2.208789953
-0.4740291275
-0.6668839178
-0.5237800142
-0.3598237696
-0.2358936086
-0.1526332374
-0.1007071867
-0.0694198403
-0.05042018156
-0.03879579474
-0.03100226054
-0.02527371863
-0.02089132398
-0.01765293115
-0.01497086815
-0.01263218801
-0.01066638081
-0.009073790183
-0.007710172875
-0.006563309438
-0.00557953536
-0.00474691963
-0.00404452914
-0.003433674404
-0.002912478461
-0.002468864708
-0.002095924077
-0.001780501526
-0.001510528666
-0.00129028927
-0.001100194254
-0.0009396172233
-0.0008048434995
-0.0007006058117
-0.0006095460641
-0.0004850462842
-0.0003980999138
-0.0003505360454
-0.0003397295487
-0.0003216142266
-0.0002857590268
-0.0002399316506
-0.0002113740263
-0.0001889557874
-0.0001876444885
-0.0001737433917
-0.0002432483972
-0.0005479775312
-0.001270136672
-0.00344034005
-0.01026609264
0.08037476301
-43051.85391
-29221.10613
-58675.16186
-46774.68174
-16393.67596
13.05106693
173.8621162
22.13774402
3.902432934
0.3060758974
-0.2112722284
-0.2355114997
-0.1764048389
-0.115001638
-0.07547697818
-0.05420181773
-0.04287139437
-0.03618256652
-0.03149626149
-0.02732657969
-0.02342566101
-0.02054176193
-0.01763710759
-0.01505400961
-0.0128827656
-0.01100767727
-0.009409656183
-0.008040532863
-0.006866184394
-0.005864135805
-0.005010892371
-0.00427910715
-0.003657728569
-0.003126359859
-0.002676730193
-0.00228796911
-0.001964228368
-0.001681233456
-0.001450312202
-0.001252523173
-0.001085084496
-0.0009478330251
-0.0008400478095
-0.0007709357062
-0.0006623359133
-0.0005340520458
-0.0004542659206
-0.0004048172846
-0.000386413292
-0.0003639020239
-0.0003338047607
-0.0003021725033
-0.0002795754641
-0.0002649381836
-0.0003743508417
-0.0006064493103
-0.001136518792
-0.002584350071
-0.008231103157
0.07332082705
-239569.6032
-246513.5348
-183183.7931
-115427.6129
-36298.72177
7250.246795
1782.920932
119.4651039
17.6077479
3.390519782
0.8257005553
0.1972971488
0.04278194629
0.005932106393
-0.001520515174
-0.007663344064
-0.01516576367
-0.02080690395
-0.02402644467
-0.02550142613
-0.02375146597
-0.02174322438
-0.01970546782
-0.01713259408
-0.01488066932
-0.01283080737
-0.0109826252
-0.00942397286
-0.00807812933
-0.006921613628
-0.005932461584
-0.00508392744
-0.004361489097
-0.003740916244
-0.003219657482
-0.002765351425
-0.002381317246
-0.00204920889
-0.001775387008
-0.001541349335
-0.001347162884
-0.001176802987
-0.001038370704
-0.0009215109523
-0.0008265704008
-0.0007505889374
-0.0006471885608
-0.0005386633515
-0.0004744768193
-0.0004277205635
-0.0003920238927
-0.0003569107075
-0.0003455834007
-0.0003505277474
-0.00045707568
-0.0006340107818
-0.001026464381
-0.001941936804
-0.006183724578
0.0442316816
-515202.7945
-459031.801
-347634.7712
-199318.0584
-66898.83112
27701.28724
9015.981731
616.4352767
59.74293871
11.89866374
3.261253222
1.137549036
0.4858159994
0.2494741308
0.1427979535
0.08135769268
0.03807800851
0.01079610494
-0.006042954293
-0.01587609984
-0.02030838545
-0.02172490752
-0.02081969557
-0.01885699042
-0.01676517718
-0.01460541214
-0.01259075347
-0.01084447643
-0.009306056678
-0.007985327677
-0.0068484297
-0.005871201309
-0.005032411555
-0.004318793678
-0.003707203196
-0.003189130437
-0.002752430937
-0.00237892497
-0.002066631454
-0.001800004155
-0.001576794285
-0.001385981957
-0.001223750025
-0.001082216636
-0.0009623882047
-0.0008643297691
-0.0007845109499
-0.0007114861069
-0.0006290875355
-0.0005319540936
-0.0004778972066
-0.0004269141346
-0.0004240589401
-0.000434785103
-0.0005387351086
-0.00068904526
-0.001033073026
-0.001630486791
-0.004275850617
0.04896351892
-653001.3863
-723954.2104
-507706.7419
-292782.7301
-68525.57517
92974.4476
35478.80616
3304.160287
235.835708
34.5107392
8.033187135
2.735320006
1.203596683
0.6431868302
0.3731173138
0.2225203094
0.1258165155
0.06480560559
0.02747872874
0.00310350711
-0.01093387492
-0.01795465954
-0.02017420804
-0.01976338094
-0.01821662791
-0.0162329336
-0.01416814124
-0.01225297811
-0.01053812139
-0.009043036618
-0.00775344263
-0.00664848212
-0.005701756923
-0.004887119836
-0.004193304249
-0.003607168481
-0.003112041414
-0.002693970209
-0.002337034134
-0.002036593567
-0.001779379894
-0.001563219773
-0.001380992906
-0.001222131149
-0.001092391697
-0.0009776713888
-0.0008828508145
-0.0007958911451
-0.000720774904
-0.0006521358373
-0.0005942864765
-0.0005418015763
-0.0005140231123
-0.0005273045922
-0.0006170567103
-0.0007493369564
-0.001078479043
-0.001539163369
-0.003212516789
0.05145090226
-1136697.914
-1036766.303
-807249.3838
-488469.0957
-56359.89198
202017.8393
88071.72358
10346.62534
765.9239877
82.30833659
16.25228146
5.24627041
2.297607705
1.214743851
0.7052380482
0.4310978524
0.2584401035
0.1468234684
0.07898752468
0.03518308343
0.007389620676
-0.008275815176
-0.01601168147
-0.01868034303
-0.01865192396
-0.0173332313
-0.01544882264
-0.01351132599
-0.01165684629
-0.01001502634
-0.00859035973
-0.007362128208
-0.00631604593
-0.005415050148
-0.004650880072
-0.00399702378
-0.003444604941
-0.002977742393
-0.002582051584
-0.002248601575
-0.001963087352
-0.001722962491
-0.001524466788
-0.001352389184
-0.00121080376
-0.001077836213
-0.0009706100469
-0.000872563325
-0.0007908840326
-0.0007108059999
-0.0006561196978
-0.0006000653619
-0.0005815862749
-0.0005888021427
-0.0006630074902
-0.0007776832161
-0.001020519835
-0.001248032727
-0.00190212299
0.05266260134
-1870514.393
-2168468.422
-1712229.026
-827729.8736
127753.2407
460128.5984
178523.0415
26423.61344
2262.861327
204.6146441
33.91841786
9.451118768
3.922372781
2.019461178
1.163045033
0.7107838115
0.4388698876
0.2627767873
0.1542993149
0.08370967552
0.03611936112
0.007796033111
-0.007488111452
-0.01472851522
-0.01739959568
-0.01739054917
-0.01614302773
-0.01439262612
-0.0125466239
-0.01082322117
-0.009292697331
-0.007953513133
-0.00680587924
-0.005826440863
-0.005001162266
-0.004297643058
-0.003699752184
-0.003193674758
-0.002766871271
-0.002407312822
-0.002106074301
-0.001850397056
-0.001638370339
-0.001455451887
-0.001301655194
-0.00115986161
-0.00104586566
-0.0009385222701
-0.0008545018673
-0.0007691595185
-0.0007176604922
-0.0006603784197
-0.0006395012836
-0.0006440637351
-0.0007065195874
-0.0007899888315
-0.0009273779552
-0.0007943011428
8.649485531e-05
0.05272156941
-3121122.507
-3140438.975
-2211421.602
-297091.2318
1169166.749
972012.5908
299107.7932
52601.71563
6154.642096
553.0559633
70.28349674
16.31066714
6.225635287
3.052646285
1.706051268
1.017572696
0.6183163131
0.3914547293
0.2438541361
0.1386920686
0.07107900471
0.02942084394
0.005135280842
-0.007954754484
-0.01403022006
-0.01606818235
-0.01588917667
-0.01464145886
-0.01300225056
-0.01131254907
-0.009737308295
-0.00834701439
-0.007142958663
-0.00611462731
-0.005237115324
-0.004494736778
-0.003863951188
-0.00332943008
-0.00288183831
-0.002505434547
-0.002193929193
-0.001930434325
-0.001710751284
-0.001522724736
-0.001361572263
-0.001219562637
-0.001102822261
-0.0009934689862
-0.0009076066341
-0.0008177875884
-0.0007730664602
-0.0007163329332
-0.000704343168
-0.0006956453687
-0.0007491925435
-0.0008093200766
-0.0008712258843
-0.0004590221639
0.001791803129
0.05113406136
-4145223.12
-3803376.997
-1129148.507
2646537.457
3088040.454
1389503.703
360353.286
76431.54531
13273.86489
1425.86085
141.533065
27.03570032
9.055549759
4.198965391
2.217358965
1.294410951
0.8059210524
0.5176818523
0.3275113441
0.1970366645
0.1106555166
0.05526899599
0.0213781836
0.001971909994
-0.008297337841
-0.01291297842
-0.01428196952
-0.01391253496
-0.01272205957
-0.01126691031
-0.009799491429
-0.0084505385
-0.00724861108
-0.006207194631
-0.00531503925
-0.004555678426
-0.003912941736
-0.00337307389
-0.002922741728
-0.002550096062
-0.002227814395
-0.00196122217
-0.00173913207
-0.001548508024
-0.00139198901
-0.001254789472
-0.001141024337
-0.001032616777
-0.000946409272
-0.0008586502383
-0.000816370692
-0.0007600294246
-0.0007509836136
-0.0007387683572
-0.0007790649673
-0.0007956511791
-0.0007347390826
5.883027996e-05
0.003506491158
0.04914794089
-4670119.286
-3382884.88
4079525.942
6887781.546
4762238.607
1487342.147
330495.4532
86963.87574
21063.4751
3012.467551
281.7779065
38.59105033
11.50853783
5.296830839
2.79661775
1.558232489
0.9517841416
0.6255114853
0.4006759972
0.2488118748
0.1467686463
0.0802380098
0.03852249718
0.01345980657
-0.0007066111709
-0.008033033592
-0.01117967252
-0.01197293193
-0.01151802734
-0.01050405902
-0.009300965051
-0.008099459503
-0.006998040932
-0.006016508097
-0.005164614817
-0.004442450697
-0.003828955121
-0.003310385135
-0.002873067713
-0.002504352766
-0.00220009314
-0.00194435068
-0.00172933816
-0.001546615282
-0.001395412587
-0.001263959478
-0.001154773455
-0.001051457698
-0.0009689622638
-0.0008890879406
-0.0008510624303
-0.0007975357554
-0.000791240612
-0.0007767760877
-0.0008044223495
-0.0007716373353
-0.0005823299618
0.0005931186472
0.005074508032
0.04781410116
-14128469.71
5796198.358
16147761.86
11834403.43
3558967.814
790193.6856
193639.7873
63271.40636
24179.72034
4024.048557
190.3306829
13.644385
6.554815607
5.0586812
2.893867625
1.686186827
1.038504017
0.6707582456
0.4367691646
0.2785179392
0.171224979
0.0996698918
0.05348888425
0.02475839489
0.007775728342
-0.001810225411
-0.006712533196
-0.00877307018
-0.009254159095
-0.008885865318
-0.008096938426
-0.007210439871
-0.006320386592
-0.005485448708
-0.004762993852
-0.004122743401
-0.003581401288
-0.003114368185
-0.002718044422
-0.002385007063
-0.002108173736
-0.001873188555
-0.001676810777
-0.001510012787
-0.001371534414
-0.001249287112
-0.001149550143
-0.001053635578
-0.0009775438124
-0.0009071719175
-0.0008721994926
-0.0008229231396
-0.000818287278
-0.0008029405501
-0.0008204246288
-0.0007567351649
-0.0004983936597
0.0008468905698
0.005745154315
0.04575437388
9667151.6
22292757.12
12521841.71
4142439.585
1250414.518
345068.5129
72339.36322
28068.84014
13715.15457
3178.003138
-61.45583677
-126.2254481
-12.60898029
-0.04619257639
2.316163701
1.681966999
1.085177454
0.697384694
0.4509333948
0.2895860849
0.1815999795
0.1096979067
0.06268195313
0.03335023567
0.01527978344
0.004435399365
-0.001630331142
-0.004752231665
-0.006142090058
-0.006487989443
-0.006285170798
-0.005810155954
-0.005236305646
-0.004660031351
-0.00411112757
-0.003612082944
-0.003174623899
-0.002789425013
-0.002464589415
-0.002190037654
-0.001955560412
-0.001754800526
-0.001587069555
-0.00144474288
-0.001324579369
-0.001217828844
-0.001130264265
-0.001047057583
-0.0009795041738
-0.0009202343593
-0.0008870449558
-0.0008416700636
-0.0008383489494
-0.0008163918977
-0.0008133904065
-0.0007039116076
-0.0003504866969
0.001171336293
0.006110228236
0.04339273526
14675868.16
9835044.988
3362786.427
1123873.688
289211.3094
-76396.2448
-58949.4725
-30407.89628
-14457.00053
-6387.584827
-2511.225624
-838.2726164
-195.5872623
-21.3170038
-2.864954675
0.8824194195
1.016474613
0.7341749966
0.4766223976
0.3011665536
0.1877671235
0.1141395226
0.06761753486
0.0384548936
0.02029382719
0.009487128495
0.003042374778
-0.0006760938921
-0.00266792679
-0.003636017335
-0.003992217047
-0.003998276898
-0.003796259982
-0.003534923711