/*--------------------------------*- C++ -*----------------------------------*\
  =========                 |
  \\      /  F ield         | OpenFOAM: The Open Source CFD Toolbox
   \\    /   O peration     | Website:  https://openfoam.org
    \\  /    A nd           | Version:  10
     \\/     M anipulation  |
\*---------------------------------------------------------------------------*/
FoamFile
{
    format      ascii;
    class       volScalarField;
    location    "0.02499901733";
    object      ddt0(rho,C2H);
}
// * * * * * * * * * * * * * * * * * * * * * * * * * * * * * * * * * * * * * //

dimensions      [1 -3 -1 0 0 0 0];

internalField   nonuniform List<scalar> 
5170
(
-3.75692698e-84
-3.757219759e-84
-3.75745756e-84
-3.758222635e-84
-3.76062828e-84
-3.787889365e-84
-3.788246153e-84
-3.788759214e-84
-3.789702968e-84
-3.792026119e-84
-3.788064961e-84
-3.788481049e-84
-3.789203402e-84
-3.790195197e-84
-3.792481842e-84
-3.788002818e-84
-3.788503966e-84
-3.789371555e-84
-3.790348302e-84
-3.792666713e-84
-3.787981929e-84
-3.788567873e-84
-3.789528598e-84
-3.790463225e-84
-3.792986183e-84
-3.787965645e-84
-3.788646707e-84
-3.789970493e-84
-3.817491413e-84
-1.453441394e-83
-3.8197989e-84
-4.631802594e-84
-2.179770211e-83
-1.980857729e-81
-8.047584459e-79
-1.248323338e-81
-3.789497229e-80
-1.073143557e-78
-1.498323343e-76
-5.9355511e-74
-4.973308114e-77
-1.776333639e-75
-6.807569922e-74
-1.171632702e-71
-4.341726236e-69
-2.031356131e-72
-8.670540333e-71
-4.550891855e-69
-9.410008598e-67
-3.166429918e-64
-8.470750654e-68
-4.388519363e-66
-3.159716791e-64
-7.707346999e-62
-2.310293779e-59
-3.597319757e-63
-2.289752486e-61
-2.253572981e-59
-6.361767346e-57
-1.688778546e-54
-1.548073869e-58
-1.221839414e-56
-1.622010492e-54
-5.228641774e-52
-1.238250947e-49
-6.713088477e-54
-6.597757658e-52
-1.16129776e-49
-4.215932158e-47
-9.115598098e-45
-2.903484382e-49
-3.569067036e-47
-8.155777243e-45
-3.288548403e-42
-6.738010609e-40
-1.241620006e-44
-1.909460273e-42
-5.550103504e-40
-2.450752863e-37
-5.000450774e-35
-5.141820714e-40
-9.928360873e-38
-3.596924873e-35
-1.72073301e-32
-3.724227061e-30
-2.036231107e-35
-5.004416058e-33
-2.195255785e-30
-1.124332759e-27
-2.782313051e-25
-7.297964934e-31
-2.323592675e-28
-1.231848746e-25
-6.701852101e-23
-2.083410261e-20
-2.27578481e-26
-1.046138214e-23
3.219658595e-12
4.380086577e-13
7.240047151e-13
-7.096456966e-14
-7.412460084e-14
-7.720970354e-14
-6.907715104e-14
-8.791351019e-14
-1.488857233e-13
-1.369522516e-13
-1.357000623e-13
-1.421657524e-13
-1.4492669e-13
-3.380791759e-14
-5.84708327e-14
-5.215694727e-14
-5.035241655e-14
-3.221869377e-14
-1.844169648e-15
-4.61617709e-15
-5.780215718e-15
-6.187936988e-15
-1.976147758e-17
7.480234629e-15
-9.502555678e-16
-3.844700002e-16
1.378970073e-15
5.484957638e-14
1.091324488e-13
-2.585097961e-14
7.192084309e-14
-4.925155314e-13
2.154282485e-11
-2.633288346e-11
-1.727520722e-12
-1.362051794e-11
-8.120782471e-11
4.721087296e-09
6.918337699e-09
1.064636606e-10
-5.714878775e-11
-1.749427951e-09
-2.770653687e-10
-6.430573913e-10
-8.505690157e-10
8.407498501e-10
-2.025939524e-09
-2.503058584e-09
-1.838279594e-09
-2.126761493e-09
-2.219498326e-09
-3.943155229e-09
-2.328515559e-10
3.267485658e-10
-2.05221789e-09
-2.457762419e-09
-2.880374858e-09
1.58315935e-11
9.953455287e-12
-1.472637724e-09
2.890559625e-10
-1.11116139e-09
7.529374935e-11
5.336406322e-11
1.410072892e-10
-1.415158964e-09
1.829397728e-10
-5.029563609e-11
-3.915495221e-11
-2.798895977e-11
2.022787739e-10
-5.362655832e-13
7.012303075e-12
-2.247385889e-11
-7.406118043e-12
-4.956862603e-12
-2.585057343e-11
2.74913584e-11
2.5935616e-11
-2.767181112e-11
-2.689736995e-11
-1.583648887e-12
3.314237615e-11
4.767670139e-11
7.504573042e-12
4.187097044e-12
3.26047163e-11
3.420796126e-11
4.189889194e-11
3.866253338e-11
3.738510316e-11
4.395364215e-11
3.428636157e-11
2.848557671e-11
3.930398818e-11
4.233589081e-11
3.9007046e-11
3.455520268e-11
-5.167673544e-10
-4.700944276e-09
-3.425113766e-11
-1.15309586e-11
-3.868937787e-11
3.278730697e-12
-1.906522594e-12
-5.49983881e-13
4.481426835e-10
-3.812518693e-11
1.833195052e-12
-9.488665446e-12
1.804766325e-11
-2.138785884e-10
-5.802758446e-10
-4.881857305e-13
-7.621231579e-12
-1.833919267e-10
-8.563419361e-11
-4.866256528e-10
-2.99401859e-23
2.452482358e-11
-4.645514693e-10
9.966702638e-11
-4.958027273e-10
-2.68148729e-12
4.281130683e-11
8.215681395e-10
1.281884023e-09
3.278762163e-08
2.158304761e-11
-2.776044223e-12
7.385647006e-10
2.021933037e-09
-4.274923755e-08
2.188082209e-11
-9.70831633e-12
8.208958509e-11
4.419047948e-09
8.583194377e-08
-1.556599397e-11
-2.379648013e-09
2.424687774e-11
7.674847875e-10
9.001399965e-09
2.395738515e-11
-1.050450876e-09
-7.545223363e-10
-7.121785905e-09
-3.529655237e-08
3.469339955e-11
-1.105593341e-10
-8.70746944e-10
-1.072520055e-08
-7.499029897e-08
4.063368818e-11
3.030173435e-11
-2.069320747e-10
-2.104359798e-09
-7.968951586e-09
1.243210597e-11
5.718538151e-11
2.319547832e-10
2.646190831e-10
9.131325448e-10
-7.447036463e-10
1.164856432e-10
6.700733518e-10
3.209940601e-09
1.465583963e-08
8.564314754e-11
5.186420632e-11
3.383756527e-10
1.160810451e-09
1.850615547e-09
4.250351462e-11
1.685903039e-10
3.386461912e-10
1.551196629e-09
7.609837823e-09
-8.60602761e-11
9.973539447e-11
1.651179544e-10
5.347004609e-09
1.419718066e-08
-1.366568541e-10
-3.396534696e-10
-1.410256253e-09
-8.56472355e-09
-4.147828135e-08
-6.399256409e-10
-1.061875395e-09
-7.305030403e-09
-1.415947597e-08
-5.460298652e-08
5.905332306e-11
-3.046236124e-10
-1.836974603e-09
-1.742913611e-08
-1.040544365e-07
1.075311767e-09
2.438539642e-09
6.696628353e-09
1.363340543e-08
1.905064019e-09
1.334092406e-09
2.893665918e-09
8.065132551e-09
2.062298051e-08
4.30380895e-08
9.522156831e-10
1.87905385e-09
3.964072748e-09
9.210377445e-09
1.9854294e-08
5.619151015e-10
6.683355122e-10
1.237240645e-09
2.411700033e-09
4.79497581e-09
1.720610665e-10
1.372345177e-10
3.325816443e-10
4.460627002e-10
8.297375917e-10
3.776688381e-11
4.47239646e-11
5.584655495e-11
3.20290286e-11
1.714407689e-10
3.925878463e-12
5.652286897e-12
1.717473468e-11
9.628907389e-12
1.559459865e-11
8.869120507e-13
9.709464657e-13
1.229309881e-12
1.703566136e-12
2.085900524e-12
7.960594879e-14
1.015841027e-13
1.516594042e-13
2.302149552e-13
2.203943517e-13
-2.23819111e-14
-1.914069202e-14
6.92604922e-15
7.901157112e-15
7.112931562e-14
-1.688483092e-16
5.296190153e-16
3.598747452e-16
6.892269453e-16
-1.105486499e-15
2.702759115e-17
-4.906480896e-17
-5.250846399e-18
-1.617090915e-16
-2.728080602e-16
-5.651091314e-19
2.631196696e-18
-1.367263343e-18
8.927106012e-18
-5.566947187e-19
1.727461456e-19
1.252354237e-19
1.895452895e-19
-2.0651816e-19
-9.07995519e-20
-1.970702231e-20
-1.082005143e-19
-4.222612335e-20
1.119572536e-21
1.935725645e-20
-2.04635483e-21
-2.292640883e-21
-4.871789338e-22
1.158507107e-21
1.619876959e-21
3.127400172e-22
3.136110618e-22
3.286114668e-22
2.2546961e-22
5.16970524e-22
2.490754003e-22
2.493348537e-22
2.484710075e-22
2.439716475e-22
2.319378453e-22
1.450826823e-22
1.448524868e-22
1.428799106e-22
1.399708323e-22
1.310355777e-22
7.708455258e-23
7.631748632e-23
7.256086013e-23
6.477315713e-23
7.738874836e-23
4.708237136e-23
7.607994872e-23
8.178258426e-23
2.147962838e-23
3.981841982e-23
3.540077459e-24
6.684869164e-23
4.979080621e-23
9.585153509e-23
5.825999756e-23
-3.04486515e-23
-4.181183311e-23
-1.149231654e-23
-1.240051067e-22
-7.084789326e-23
1.02708779e-23
1.050484015e-23
1.031784004e-23
1.165048155e-23
1.236681021e-23
-2.185990514e-23
-1.411552207e-23
8.625113974e-24
5.425962692e-24
-4.063668772e-24
-1.342384026e-23
-1.055810854e-23
-1.125801863e-23
-2.858571303e-24
1.765647625e-23
-1.138798939e-23
3.414068135e-24
3.490944133e-24
6.946700607e-25
2.105548033e-24
3.582004666e-24
2.441698324e-24
-2.213597421e-24
-1.896749848e-25
-3.0958372e-24
1.581130785e-24
-1.754590338e-24
-5.430818213e-24
-3.361251856e-24
1.218072581e-24
1.732246376e-24
1.649731096e-24
1.70399282e-24
1.420532098e-24
1.168935335e-24
1.973064589e-24
2.214155015e-24
1.972684243e-24
-1.059764698e-24
1.472577894e-24
-6.540757831e-26
-6.043297826e-26
-1.611942055e-25
-5.732889794e-25
-5.678076369e-25
-4.682385941e-25
-5.323271199e-25
-5.630720849e-25
-5.88577318e-25
-1.552462229e-25
-1.327427575e-25
-1.312138584e-25
-1.303849726e-25
-1.29850517e-25
-1.366306224e-25
-2.507452938e-25
-2.478892892e-25
-2.404245713e-25
-2.284670418e-25
-2.05192549e-25
-1.485928862e-25
2.820506127e-26
2.691441903e-25
-2.575397366e-26
-1.222166416e-25
2.474798287e-25
3.392959387e-25
1.485744444e-27
1.417775257e-26
-9.047572602e-26
4.24276117e-26
3.673290668e-26
2.143975731e-26
1.807339033e-27
-2.374083973e-27
-1.182351663e-25
-1.186378114e-25
-1.186468515e-25
-1.177902579e-25
-1.126935958e-25
-1.208851078e-25
-1.21645807e-25
-1.220796327e-25
-1.215622939e-25
-1.162469254e-25
-1.485486131e-26
-1.75756028e-26
-1.814697539e-26
-1.853143769e-26
-1.515040621e-26
1.233599e-27
5.818123565e-28
1.155475846e-27
8.773362061e-28
7.030825164e-28
-5.546954791e-28
-4.784421541e-28
-3.482337568e-28
-4.093334398e-29
7.626688301e-29
-5.521989268e-30
-6.164851026e-30
-9.2097282e-30
-1.883090504e-29
2.807833489e-29
-7.452643103e-28
-1.361686902e-27
-5.752221707e-27
-3.286399422e-26
-3.452360129e-26
-3.711102275e-26
-3.737158523e-26
-3.767816498e-26
-3.788956508e-26
-3.821674023e-26
-3.900633337e-26
-3.924270041e-26
-3.946697272e-26
-3.950130154e-26
-7.823973786e-27
-9.219514657e-28
-1.560051431e-27
-1.369880835e-27
7.871488154e-28
-6.739832283e-28
9.264124697e-28
9.829571633e-28
1.019663408e-27
1.027137193e-27
9.275657592e-28
5.871545372e-29
1.938286244e-29
1.453580794e-29
3.508196742e-29
1.536300237e-28
3.091827459e-30
1.82354866e-30
-4.864285527e-30
-2.183519947e-29
-1.209713784e-29
-3.564610023e-11
-4.277301683e-09
-4.32055177e-09
-2.269697723e-08
4.405120142e-07
-1.037772425e-06
5.954760896e-07
2.000726954e-07
-7.556943938e-08
-1.42696427e-07
2.091168367e-08
4.291377273e-09
3.876640181e-08
-1.12710584e-09
3.440385001e-08
4.255906953e-08
-1.236182328e-07
-1.675979267e-07
-3.506463509e-07
-1.027125774e-07
5.098002418e-08
3.127510745e-08
7.748760923e-09
1.283203393e-09
1.936014901e-10
1.899191557e-11
2.063273009e-12
6.924559447e-13
5.711454608e-14
-2.531743537e-15
-5.102260851e-17
-5.040401538e-18
-3.804523712e-20
1.162617233e-20
1.870607675e-21
4.699658021e-22
2.010537806e-22
1.291895655e-22
8.019655134e-23
4.031213977e-23
-1.70598363e-23
1.65325434e-22
6.466838188e-24
-1.472690041e-23
-1.656522019e-23
2.727193321e-24
3.461452577e-24
-8.200182206e-25
6.947135023e-26
-7.395404653e-25
-6.394241909e-25
-5.833944926e-26
-1.543289062e-25
-1.710315928e-25
-6.975014495e-26
-8.737661581e-26
-9.164872792e-28
-1.044529689e-25
-1.076501366e-25
-1.727203261e-26
4.392074796e-28
8.810149063e-29
-1.609915907e-28
-3.104846359e-26
-3.426654664e-26
-2.696429596e-27
3.412228062e-28
1.068332951e-27
-5.263437584e-28
7.840004474e-29
-4.304743089e-11
-5.002893464e-11
-1.603707618e-10
-9.883766811e-10
-4.049280756e-11
4.561091118e-10
1.90035153e-08
-2.444294792e-09
-8.736928363e-11
-1.210009347e-11
-5.643165758e-09
-3.282229406e-08
-2.81572974e-08
-1.093461299e-09
-1.644193621e-10
-5.30157285e-08
-6.179630508e-07
-4.692641456e-07
-1.323984832e-08
-9.952079921e-09
3.140254678e-06
6.513177423e-08
6.889084816e-07
-2.912578673e-07
-2.839222728e-08
-1.041629141e-05
-5.121168142e-07
-1.934087899e-06
-2.46523335e-07
-4.466232015e-08
3.396811904e-06
-8.161403487e-10
-8.912614509e-07
-7.740287019e-08
-2.332298504e-09
4.084739851e-06
1.99386577e-07
1.548413955e-06
1.193813854e-05
1.649329629e-06
-8.430629143e-08
-2.265725218e-08
1.466805392e-08
-6.079404465e-07
3.188275732e-07
-6.696117908e-07
-4.916284738e-07
-2.346234571e-07
1.426939158e-06
2.254118866e-07
3.164728647e-07
-9.117176371e-08
8.042005944e-07
1.656283337e-06
3.11421458e-07
9.539251757e-08
5.658521388e-07
2.639711058e-07
5.060598899e-07
-2.588341555e-06
1.538187376e-07
9.68987976e-07
2.068471716e-07
6.951247081e-07
-7.846704271e-06
1.180910289e-08
5.014908045e-07
-4.942772903e-07
-2.773723558e-07
-1.042004569e-06
9.576283673e-08
9.473266653e-07
3.824923275e-07
-4.311426918e-07
-1.363384841e-06
4.621141377e-08
6.408193466e-07
-3.646090794e-07
-1.881869918e-06
-8.431991241e-06
-3.198473765e-07
-3.26225518e-06
-2.481877244e-06
-9.691296477e-06
-3.910439176e-05
-3.816460449e-07
-1.816924177e-06
-6.875567492e-06
-2.71618631e-05
-0.000102656358
-9.534480216e-07
-3.307157639e-06
-5.689965993e-06
1.181429885e-05
0.0002152087683
-5.169676019e-07
-2.44677781e-06
-6.177778262e-06
-8.595177939e-06
-9.874255513e-07
-7.477852611e-09
-4.459742899e-07
-1.657396336e-06
-2.878215887e-06
-2.519980664e-06
4.434184149e-08
2.605516396e-08
-1.281559513e-07
-3.672951922e-07
-3.786684242e-07
1.345525834e-08
2.103818745e-08
1.398578153e-08
-1.135071932e-08
-2.236403224e-08
2.347360741e-09
4.161373529e-09
4.786153508e-09
3.029926983e-09
1.100008149e-09
3.089709124e-10
5.433288903e-10
6.9427143e-10
6.095506439e-10
3.903704502e-10
2.722372026e-11
4.266748959e-11
5.811713646e-11
6.278964668e-11
4.931771426e-11
2.977902881e-12
4.067363692e-12
4.577948769e-12
5.38741545e-12
7.73051242e-12
5.014374994e-13
3.425245549e-13
-1.326056437e-14
-3.500855927e-12
5.688474339e-14
4.500784055e-14
6.603138707e-14
4.337869605e-14
-6.897210895e-14
-1.139262763e-13
9.733743187e-16
-4.28612456e-15
2.798060545e-15
-3.173024215e-16
2.668316702e-15
2.558318679e-16
1.583360426e-16
9.891063483e-17
-1.236225012e-16
-2.134854511e-16
-1.549311899e-17
4.452791524e-17
3.792769684e-17
2.17044509e-17
-6.428335843e-18
-1.446021298e-19
1.672791753e-18
1.436620831e-18
1.824381539e-18
7.950733185e-19
2.466570953e-21
-2.617832045e-20
2.088481764e-20
-8.897037661e-20
-3.002895925e-20
1.057789827e-21
5.875523457e-22
1.097281499e-20
-1.619201804e-21
-5.160079341e-22
4.002280857e-22
2.306163475e-22
3.621562448e-22
7.654039559e-23
2.009031269e-22
8.750154584e-23
1.005165457e-22
1.14341625e-22
1.350512799e-22
1.312709925e-22
1.264112512e-22
1.081158007e-22
8.205987934e-23
7.023945523e-23
1.019354305e-22
5.773347905e-23
6.108284745e-23
1.917878053e-23
1.43604352e-23
3.629020005e-23
1.004907978e-22
-2.027398756e-23
-9.171593667e-24
5.798877558e-23
-4.197969988e-23
-4.874888752e-23
3.86804046e-23
-9.649064569e-23
7.654325189e-24
2.307032946e-24
-1.00381887e-22
4.696585051e-24
1.90557728e-23
-1.844423255e-23
-2.123518171e-24
1.180942546e-23
-2.060881318e-23
4.42651319e-24
-2.98586125e-24
-1.400243644e-24
-1.57339422e-23
-2.727481038e-24
-3.851566569e-24
4.681399615e-24
7.232296401e-24
1.56450023e-23
-5.76881181e-24
-4.480180936e-24
2.023497634e-24
1.178724086e-24
9.33364901e-24
2.828106529e-24
2.20113302e-24
1.427821736e-24
-1.270262554e-24
-3.933451246e-25
-5.068316674e-24
-1.164565513e-24
1.49986227e-24
1.40522025e-24
1.54145011e-24
3.24492593e-27
-1.124319833e-25
4.932342455e-24
3.112513616e-24
-1.700040678e-24
3.882565739e-24
4.184059995e-24
-1.319482687e-25
-1.144855095e-24
1.764297029e-25
-6.128491407e-25
6.29930967e-25
6.238691161e-25
-3.750791467e-25
-3.342482648e-25
-1.738140112e-25
-1.917912007e-25
-1.783747077e-25
-1.53139538e-25
-1.568529281e-25
-1.767821364e-25
-1.556890512e-25
-1.476273749e-25
-1.653061891e-25
-1.614576519e-25
-2.013780256e-25
-3.546012592e-25
-4.83363313e-25
2.543009983e-25
-1.557353687e-25
-6.848180437e-26
2.712798468e-26
-1.914571184e-25
-1.614065605e-25
-4.203248233e-26
-1.150838111e-25
-1.291494748e-25
-2.54714434e-25
-7.858893653e-26
1.247075689e-26
6.93678459e-27
9.832812659e-26
-9.506898076e-26
-1.140114679e-25
-1.015586717e-25
-1.138875361e-25
-1.165732131e-25
-1.242451394e-25
-1.236696065e-25
-1.254143158e-25
-1.299280462e-25
-1.292544811e-25
-1.246968788e-25
-6.385274714e-26
-1.276556806e-25
-3.43523019e-26
-1.836716699e-26
-1.626210618e-26
-5.188309763e-27
-8.030623154e-27
-7.069202209e-27
2.059632049e-27
2.79521235e-27
5.178715271e-28
1.637702166e-27
1.56905425e-27
-1.089186792e-27
2.088379198e-28
2.594268477e-28
-4.787638213e-29
-5.406199966e-29
-3.941605956e-29
-1.187263566e-28
2.210163381e-28
7.372030523e-29
-4.030790236e-28
-3.531321176e-27
-3.776004343e-26
-4.126192094e-26
-3.893208827e-26
-4.07877767e-26
-4.197286442e-26
-4.555463176e-26
-4.692103171e-26
-4.450971337e-26
-4.674807443e-26
-4.645758468e-26
-4.652404576e-26
-4.249594637e-26
-5.227191186e-27
-1.820098078e-27
-1.556979601e-27
-1.507785256e-27
-4.332815758e-28
-8.110853405e-28
-1.194056848e-27
1.257654756e-27
1.581389017e-27
1.226323138e-27
8.903300962e-28
9.39354563e-28
7.683905984e-28
9.716060194e-28
-5.867075337e-28
1.026529006e-28
-6.672829053e-29
-1.883406168e-29
8.929280644e-29
5.130840377e-28
-8.142050853e-31
3.923047867e-29
3.491930903e-29
2.704165511e-29
2.315523204e-29
-2.913411288e-13
-1.40812138e-13
4.252922422e-16
4.299272897e-18
-2.308491725e-31
-6.04724663e-35
-1.642360154e-38
-4.286405332e-42
-1.046819103e-45
-2.380774949e-49
-5.073702006e-53
-1.022624394e-56
-1.964581189e-60
-3.613931344e-64
-6.379946682e-68
-1.082030449e-71
0
0
0
0
0
0
0
0
0
0
0
0
0
0
0
0
0
0
0
0
0
0
0
0
0
0
0
0
0
0
0
0
0
0
0
0
0
0
0
0
0
0
0
0
-3.908136389e-14
-4.930724102e-14
-7.312937915e-16
-1.496910333e-17
-1.485075487e-33
-4.008432234e-37
-1.171388514e-40
-3.447594419e-44
-9.828998835e-48
-2.656362595e-51
-6.728582753e-55
-1.587025883e-58
-3.480878387e-62
-7.135394668e-66
-1.375916575e-69
-2.509451797e-73
0
0
0
0
0
0
0
0
0
0
0
0
0
0
0
0
0
0
0
0
0
0
0
0
0
0
0
0
0
0
0
0
0
0
0
0
0
0
0
0
0
0
0
0
-1.493251537e-12
4.328235108e-12
-3.740459999e-14
3.153181814e-16
-1.862555565e-34
-5.751579625e-38
-1.914825577e-41
-6.420280596e-45
-2.087798674e-48
-6.426003548e-52
-1.841925091e-55
-4.873249943e-59
-1.187326454e-62
-2.669719926e-66
-5.570989224e-70
-1.086499915e-73
0
0
0
0
0
0
0
0
0
0
0
0
0
0
0
0
0
0
0
0
0
0
0
0
0
0
0
0
0
0
0
0
0
0
0
0
0
0
0
0
0
0
0
0
-7.824061908e-10
-1.005692724e-11
4.549807652e-14
3.645756993e-14
-2.137465049e-34
-8.552429982e-38
-3.80978128e-41
-1.718745715e-44
-7.484095476e-48
-3.052154702e-51
-1.141235196e-54
-3.854083585e-58
-1.164315599e-61
-3.135291749e-65
-7.556808849e-69
-1.647684495e-72
0
0
0
0
0
0
0
0
0
0
0
0
0
0
0
0
0
0
0
0
0
0
0
0
0
0
0
0
0
0
0
0
0
0
0
0
0
0
0
0
0
0
0
0
-7.812477571e-10
-1.807340427e-11
-3.512104207e-13
-4.21911346e-13
1.502956345e-14
-1.22277833e-37
-5.56880866e-41
-2.654587462e-44
-1.253403208e-47
-5.682119471e-51
-2.419607954e-54
-9.505818716e-58
-3.391909795e-61
-1.085273265e-64
-3.087995974e-68
-7.802180641e-72
0
0
0
0
0
0
0
0
0
0
0
0
0
0
0
0
0
0
0
0
0
0
0
0
0
0
0
0
0
0
0
0
0
0
0
0
0
0
0
0
0
0
0
0
-2.952608897e-09
-7.293661956e-11
-5.734976813e-13
-2.376466241e-13
6.609867432e-14
-2.724953138e-37
-1.168096492e-40
-5.55470132e-44
-2.691102847e-47
-1.275784653e-50
-5.776999083e-54
-2.455683386e-57
-9.658597895e-61
-3.468940217e-64
-1.124061411e-67
-3.255049039e-71
0
0
0
0
0
0
0
0
0
0
0
0
0
0
0
0
0
0
0
0
0
0
0
0
0
0
0
0
0
0
0
0
0
0
0
0
0
0
0
0
0
0
0
0
-6.614485955e-11
2.288163566e-11
6.799075396e-13
-1.770041608e-15
-8.184733252e-14
-8.094590915e-37
-3.135341534e-40
-1.455301154e-43
-7.117471934e-47
-3.468835299e-50
-1.635814676e-53
-7.325443422e-57
-3.072080538e-60
-1.192244274e-63
-4.234223638e-67
-1.361517636e-70
0
0
0
0
0
0
0
0
0
0
0
0
0
0
0
0
0
0
0
0
0
0
0
0
0
0
0
0
0
0
0
0
0
0
0
0
0
0
0
0
0
0
0
0
1.5801194e-07
7.659210733e-09
1.898044468e-10
7.888986238e-13
-4.363368895e-12
9.657983793e-14
-1.19290681e-39
-5.174340201e-43
-2.51306014e-46
-1.247679492e-49
-6.079299385e-53
-2.840534063e-56
-1.25327915e-59
-5.160251589e-63
-1.962495988e-66
-6.826775617e-70
0
0
0
0
0
0
0
0
0
0
0
0
0
0
0
0
0
0
0
0
0
0
0
0
0
0
0
0
0
0
0
0
0
0
0
0
0
0
0
0
0
0
0
0
5.775132186e-08
5.76774792e-09
2.881139537e-10
4.407481988e-13
-2.832660345e-13
-6.288216478e-13
-7.599909131e-14
-1.844075331e-42
-8.580647275e-46
-4.271254379e-49
-2.133799089e-52
-1.035971613e-55
-4.793321073e-59
-2.084817814e-62
-8.431838576e-66
-3.1406544e-69
0
0
0
0
0
0
0
0
0
0
0
0
0
0
0
0
0
0
0
0
0
0
0
0
0
0
0
0
0
0
0
0
0
0
0
0
0
0
0
0
0
0
0
0
6.158785333e-08
8.356196903e-09
5.148683728e-10
2.097436384e-11
2.383492339e-13
-5.568758927e-15
-1.835584101e-13
-1.074664343e-41
-4.592238423e-45
-2.258289309e-48
-1.149249917e-51
-5.779812259e-55
-2.800467231e-58
-1.285796558e-61
-5.525799002e-65
-2.200099796e-68
0
0
0
0
0
0
0
0
0
0
0
0
0
0
0
0
0
0
0
0
0
0
0
0
0
0
0
0
0
0
0
0
0
0
0
0
0
0
0
0
0
0
0
0
6.107052306e-08
3.954328515e-08
9.257640292e-09
8.123646094e-10
4.679098992e-11
9.723344157e-13
1.22195946e-13
-6.40685931e-41
-2.197702914e-44
-1.000802434e-47
-5.027569e-51
-2.56904931e-54
-1.286005453e-57
-6.169569041e-61
-2.794660162e-64
-1.181478687e-67
0
0
0
0
0
0
0
0
0
0
0
0
0
0
0
0
0
0
0
0
0
0
0
0
0
0
0
0
0
0
0
0
0
0
0
0
0
0
0
0
0
0
0
0
-6.11703384e-07
-6.455508751e-08
-6.065192185e-09
-4.305024974e-10
-2.517676647e-11
-6.073704008e-13
-7.942055533e-16
-5.906783136e-40
-1.356433148e-43
-5.138629798e-47
-2.407190468e-50
-1.207017948e-53
-6.080910499e-57
-2.982392281e-60
-1.396875106e-63
-6.163390719e-67
0
0
0
0
0
0
0
0
0
0
0
0
0
0
0
0
0
0
0
0
0
0
0
0
0
0
0
0
0
0
0
0
0
0
0
0
0
0
0
0
0
0
0
0
-3.804140623e-07
-9.519322331e-08
-2.236215849e-08
-2.375252368e-09
-1.7478919e-10
-1.861536136e-12
2.014557726e-13
-7.460040172e-14
-7.4953671e-43
-2.007142199e-46
-8.018732895e-50
-3.756886938e-53
-1.839298295e-56
-8.951049018e-60
-4.217744467e-63
-1.892543327e-66
0
0
0
0
0
0
0
0
0
0
0
0
0
0
0
0
0
0
0
0
0
0
0
0
0
0
0
0
0
0
0
0
0
0
0
0
0
0
0
0
0
0
0
0
-4.559208328e-07
-1.518872983e-07
-4.278356718e-08
-7.962387596e-09
-1.314317433e-09
-1.092855902e-10
-2.689350001e-12
4.703757459e-13
1.508013552e-14
-8.145907653e-46
-2.398652106e-49
-9.725244627e-53
-4.43668949e-56
-2.072306518e-59
-9.525668214e-63
-4.217845809e-66
0
0
0
0
0
0
0
0
0
0
0
0
0
0
0
0
0
0
0
0
0
0
0
0
0
0
0
0
0
0
0
0
0
0
0
0
0
0
0
0
0
0
0
0
-8.465891782e-07
-2.387182525e-07
-5.951287607e-08
-1.086770624e-08
-1.003025567e-09
-4.509082425e-11
5.928904707e-13
1.724508535e-12
2.291412576e-13
-3.958932149e-45
-6.888244951e-49
-2.111634608e-52
-8.358371044e-56
-3.599457376e-59
-1.563838539e-62
-6.636011167e-66
0
0
0
0
0
0
0
0
0
0
0
0
0
0
0
0
0
0
0
0
0
0
0
0
0
0
0
0
0
0
0
0
0
0
0
0
0
0
0
0
0
0
0
0
-1.955015178e-06
-4.244451038e-07
-8.8877022e-08
-1.638880164e-08
-1.137415368e-09
-3.151315065e-11
1.44917694e-12
-1.365528555e-11
-2.307829877e-15
-3.869412235e-43
-3.426796501e-47
-6.503334759e-51
-2.001514422e-54
-7.559136505e-58
-3.024995543e-61
-1.206140719e-64
0
0
0
0
0
0
0
0
0
0
0
0
0
0
0
0
0
0
0
0
0
0
0
0
0
0
0
0
0
0
0
0
0
0
0
0
0
0
0
0
0
0
0
0
-7.424119066e-06
-1.348337892e-06
-2.23076667e-07
-2.09421251e-08
-5.843376902e-10
7.092852788e-11
9.001173301e-12
6.217178982e-12
-9.401410141e-14
-2.63112674e-40
-2.184873314e-44
-2.138860305e-48
-4.293286838e-52
-1.306197852e-55
-4.679425995e-59
-1.739603206e-62
0
0
0
0
0
0
0
0
0
0
0
0
0
0
0
0
0
0
0
0
0
0
0
0
0
0
0
0
0
0
0
0
0
0
0
0
0
0
0
0
0
0
0
0
-1.920794515e-05
-2.965114723e-06
-3.143317767e-07
-1.367388848e-08
1.004960546e-09
1.912106408e-10
1.563717909e-11
6.401832164e-12
-3.458180671e-36
-1.538795218e-39
-2.883628721e-43
-2.2405731e-47
-2.406516637e-51
-5.02170031e-55
-1.502083509e-58
-5.131507487e-62
0
0
0
0
0
0
0
0
0
0
0
0
0
0
0
0
0
0
0
0
0
0
0
0
0
0
0
0
0
0
0
0
0
0
0
0
0
0
0
0
0
0
0
0
3.982287681e-06
-3.290140479e-06
-1.074943074e-06
-1.406478512e-07
-7.886219243e-09
-1.212404646e-10
9.570882694e-12
3.837110259e-12
2.842591327e-13
-1.408410638e-38
-5.467861572e-42
-8.782193923e-46
-6.631688644e-50
-7.760676461e-54
-1.67084396e-57
-4.928174977e-61
0
0
0
0
0
0
0
0
0
0
0
0
0
0
0
0
0
0
0
0
0
0
0
0
0
0
0
0
0
0
0
0
0
0
0
0
0
0
0
0
0
0
0
0
-4.730993838e-06
-2.196624881e-06
-4.375496802e-07
-3.902069299e-08
-1.121513749e-09
7.82600421e-11
2.487987741e-11
2.28178845e-12
2.482266922e-13
-3.5660516e-38
-2.200253585e-41
-7.470285928e-45
-1.037690736e-48
-7.844535284e-53
-9.929837671e-57
-2.201374786e-60
0
0
0
0
0
0
0
0
0
0
0
0
0
0
0
0
0
0
0
0
0
0
0
0
0
0
0
0
0
0
0
0
0
0
0
0
0
0
0
0
0
0
0
0
-1.614535648e-06
-4.830888559e-07
-6.511054803e-08
-2.764516761e-09
3.144908326e-10
5.577883891e-11
-1.067897924e-11
-7.179102671e-13
1.668218856e-14
-6.415406273e-38
-5.275081983e-41
-2.905502425e-44
-8.59692822e-48
-1.040568732e-51
-8.062471263e-56
-1.098712851e-59
0
0
0
0
0
0
0
0
0
0
0
0
0
0
0
0
0
0
0
0
0
0
0
0
0
0
0
0
0
0
0
0
0
0
0
0
0
0
0
0
0
0
0
0
-2.115205278e-07
-4.543109957e-08
-2.515500377e-09
6.447236086e-10
1.566082574e-10
1.777523845e-11
1.167575903e-12
1.170642193e-13
1.923689486e-16
-2.577144126e-35
-2.609209204e-38
-1.948297923e-41
-9.616131872e-45
-2.500727859e-48
-2.706342886e-52
-2.182419777e-56
0
0
0
0
0
0
0
0
0
0
0
0
0
0
0
0
0
0
0
0
0
0
0
0
0
0
0
0
0
0
0
0
0
0
0
0
0
0
0
0
0
0
0
0
-1.11462176e-08
-3.769026985e-10
7.485437413e-10
2.26504743e-10
3.560564109e-11
3.808484957e-12
6.050141098e-13
4.305517438e-14
7.171502984e-26
1.553312604e-26
-4.71671612e-38
-4.359503556e-41
-2.951999777e-44
-1.29968749e-47
-2.945210455e-51
-2.861614849e-55
-1.454505427e-67
-2.644636054e-71
-7.515876118e-75
-2.391719723e-78
-7.736152921e-82
-2.448307952e-85
-7.415032375e-89
0
0
0
0
0
0
0
0
0
0
0
0
0
0
0
0
0
0
0
0
0
0
0
0
0
0
0
0
0
0
0
0
0
0
0
0
0
7.063751825e-10
5.244348668e-10
1.880678202e-10
3.964336062e-11
4.705873947e-12
3.401515089e-13
5.847482213e-14
1.4876156e-14
1.358192607e-15
-1.59533015e-26
2.599124548e-31
-8.241205317e-41
-6.942477681e-44
-4.253699663e-47
-1.661902563e-50
-3.252181454e-54
-2.111784948e-62
-1.98938144e-66
-3.591318648e-70
-9.137808826e-74
-2.694086771e-77
-8.281878986e-81
-2.516178685e-84
0
0
0
0
0
0
0
0
0
0
0
0
0
0
0
0
0
0
0
0
0
0
0
0
0
0
0
0
0
0
0
0
0
0
0
0
0
2.196063618e-10
9.278842495e-11
2.510192129e-11
4.417961749e-12
7.208388514e-13
1.63218804e-13
1.317444448e-14
-2.883773726e-15
6.526413114e-17
1.472000307e-26
4.084389026e-26
-1.382714242e-40
-1.376032877e-43
-1.054049736e-46
-5.822766676e-50
-2.002515549e-53
-3.338118472e-57
-2.672094282e-61
-2.531199171e-65
-4.251282161e-69
-1.02307246e-72
-2.889304367e-76
-8.549659227e-80
0
0
0
0
0
0
0
0
0
0
0
0
0
0
0
0
0
0
0
0
0
0
0
0
0
0
0
0
0
0
0
0
0
0
0
0
0
2.774294109e-11
9.700349326e-12
2.353340306e-12
-1.856614746e-13
7.428536399e-14
3.052081489e-14
-7.246794537e-16
-3.451819055e-17
6.534762544e-22
-1.290486649e-21
-1.057102093e-26
1.055378522e-29
-2.471197622e-43
-2.251915777e-46
-1.568267723e-49
-7.780546334e-53
-2.348869425e-56
-3.365958105e-60
-2.530470897e-64
-2.550263672e-68
-4.458555086e-72
-1.078720686e-75
-3.001074443e-79
0
0
0
0
0
0
0
0
0
0
0
0
0
0
0
0
0
0
0
0
0
0
0
0
0
0
0
0
0
0
0
0
0
0
0
0
0
2.496778066e-12
8.221052796e-13
2.981644679e-13
4.266332098e-13
2.562509146e-14
-1.383020485e-15
1.756065804e-20
-5.675582947e-21
-4.42064925e-21
-9.133101063e-22
-5.922331407e-27
1.915784424e-26
-5.099881403e-27
-4.112010006e-46
-3.42082683e-49
-2.157306673e-52
-9.561634297e-56
-2.52262509e-59
-3.120323234e-63
-2.262408232e-67
-2.427058054e-71
-4.382498759e-75
-1.059211754e-78
0
0
0
0
0
0
0
0
0
0
0
0
0
0
0
0
0
0
0
0
0
0
0
0
0
0
0
0
0
0
0
0
0
0
0
0
0
2.182090586e-13
-2.769035554e-14
6.010685177e-14
1.104504029e-14
1.354092856e-16
-8.756683217e-19
-4.432831054e-21
2.915755439e-21
-7.363500291e-21
-9.499033277e-22
-1.612894943e-21
1.351278579e-26
-8.378847781e-27
-7.067822437e-46
-6.756105006e-49
-5.108615584e-52
-2.900279946e-55
-1.136135787e-58
-2.566288677e-62
-2.689111367e-66
-1.916078604e-70
-2.200276849e-74
-4.101577051e-78
0
0
0
0
0
0
0
0
0
0
0
0
0
0
0
0
0
0
0
0
0
0
0
0
0
0
0
0
0
0
0
0
0
0
0
0
0
2.151365574e-14
3.990398105e-14
3.426977029e-15
5.056643905e-16
2.262109949e-17
4.381692425e-19
2.863222556e-20
-5.226087847e-22
-6.935791944e-21
-3.015417288e-22
2.230654344e-24
-2.800175685e-27
1.066213869e-26
-5.294139355e-27
-3.218923271e-46
-2.823176423e-49
-1.945112105e-52
-9.95830778e-56
-3.439740228e-59
-6.581311766e-63
-5.814301869e-67
-4.161447235e-71
-5.06418183e-75
0
0
0
0
0
0
0
0
0
0
0
0
0
0
0
0
0
0
0
0
0
0
0
0
0
0
0
0
0
0
0
0
0
0
0
0
0
1.10111639e-15
7.931852107e-16
-1.905602628e-18
5.339194478e-19
5.488931517e-19
-7.826169657e-20
1.455302853e-21
5.124671712e-21
2.414987363e-21
3.78300177e-21
-1.222164366e-21
-1.516914573e-27
1.62757467e-26
-7.932847787e-27
-5.022880018e-46
-4.959287712e-49
-3.973758052e-52
-2.482408462e-55
-1.139808485e-58
-3.446641783e-62
-5.562480832e-66
-4.244115613e-70
-3.137831148e-74
0
0
0
0
0
0
0
0
0
0
0
0
0
0
0
0
0
0
0
0
0
0
0
0
0
0
0
0
0
0
0
0
0
0
0
0
0
1.959162295e-17
2.468033572e-17
6.059412108e-19
2.930937306e-19
-9.970966933e-21
-2.732687908e-20
-2.688079385e-21
6.248119841e-21
-3.66727934e-21
-1.240564275e-21
-1.250143279e-21
-3.083956627e-21
-5.119893218e-22
1.198530915e-26
-4.817513798e-27
-8.037437992e-49
-7.276676117e-52
-5.314230645e-55
-3.000078544e-58
-1.2290354e-61
-3.207942121e-65
-4.263054922e-69
-2.847153592e-73
0
0
0
0
0
0
0
0
0
0
0
0
0
0
0
0
0
0
0
0
0
0
0
0
0
0
0
0
0
0
0
0
0
0
0
0
0
5.007063613e-18
8.69730237e-19
2.07875459e-19
-1.602066977e-20
-2.321149077e-20
-1.289937177e-20
1.250418484e-21
-5.285312598e-22
-5.123839131e-22
-4.665190197e-22
4.382296742e-22
-2.840201468e-22
-4.105976949e-22
1.62106832e-26
-7.711143347e-27
-1.214715942e-48
-1.218467618e-51
-1.011125119e-54
-6.720950615e-58
-3.418430241e-61
-1.241264094e-64
-2.763061926e-68
-2.988881956e-72
0
0
0
0
0
0
0
0
0
0
0
0
0
0
0
0
0
0
0
0
0
0
0
0
0
0
0
0
0
0
0
0
0
0
0
0
0
1.367361959e-19
1.701650342e-20
7.882950125e-21
1.126353407e-21
9.439302501e-22
-7.579439708e-22
4.20181838e-22
1.727269754e-21
2.133739247e-22
1.019621907e-22
-1.511275444e-21
-1.147076115e-21
1.98399685e-23
-3.212471901e-22
1.249469068e-26
-4.593282434e-27
-1.946713771e-53
-1.821070778e-56
-1.395806352e-59
-8.472870554e-63
-3.876348582e-66
-1.236468389e-69
-2.327912275e-73
0
0
0
0
0
0
0
0
0
0
0
0
0
0
0
0
0
0
0
0
0
0
0
0
0
0
0
0
0
0
0
0
0
0
0
0
0
-1.622722783e-20
1.009369346e-20
3.039364507e-21
4.848167342e-21
2.899040794e-22
4.703495297e-23
-1.496372071e-22
-4.816219586e-23
2.695568682e-23
1.734169377e-21
-4.33242935e-24
-6.281639905e-22
-2.591572985e-23
-1.289545455e-21
-1.345834837e-25
-7.587633737e-28
-9.218324135e-54
-9.287581636e-57
-7.856889977e-60
-5.432085352e-63
-2.956133282e-66
-1.198117685e-69
-3.293073439e-73
0
0
0
0
0
0
0
0
0
0
0
0
0
0
0
0
0
0
0
0
0
0
0
0
0
0
0
0
0
0
0
0
0
0
0
0
0
2.329259667e-21
1.384313136e-21
6.970153987e-22
7.134329147e-22
6.020653774e-22