/*--------------------------------*- C++ -*----------------------------------*\
  =========                 |
  \\      /  F ield         | OpenFOAM: The Open Source CFD Toolbox
   \\    /   O peration     | Website:  https://openfoam.org
    \\  /    A nd           | Version:  10
     \\/     M anipulation  |
\*---------------------------------------------------------------------------*/
FoamFile
{
    format      ascii;
    class       volScalarField;
    location    "0.02499901733";
    object      HCCOH_0;
}
// * * * * * * * * * * * * * * * * * * * * * * * * * * * * * * * * * * * * * //

dimensions      [0 0 0 0 0 0 0];

internalField   nonuniform List<scalar> 
5170
(
0
0
0
0
0
0
0
0
0
0
0
0
0
0
0
0
0
0
0
0
0
0
0
0
0
0
0
0
0
0
0
0
0
0
0
0
0
0
0
0
0
0
0
0
0
0
0
0
0
0
0
0
0
0
0
0
0
0
0
0
0
0
0
0
0
0
0
0
0
0
0
0
0
0
0
0
0
0
0
0
0
0
0
0
0
0
0
0
0
0
0
0
8.904641717e-17
9.402354238e-16
3.910167233e-15
1.493552259e-15
8.475166816e-15
6.745917756e-14
4.711807334e-13
2.239138462e-12
8.443268311e-15
1.885537306e-13
0
1.111384388e-14
0
2.052090364e-13
3.185454936e-13
0
0
0
4.775523225e-14
1.542168958e-13
0
1.0553896e-14
1.541449908e-14
2.419175216e-14
5.599452196e-14
0
6.370504648e-15
4.596384039e-16
0
9.139664598e-15
0
2.409098723e-16
0
0
0
0
3.138925064e-13
0
0
0
1.99833606e-12
1.517147023e-10
2.329260299e-09
4.634795832e-09
1.54338423e-10
0
2.666036384e-11
1.008070041e-08
1.148249728e-08
2.477343339e-09
1.148313417e-09
7.132357759e-09
2.446623236e-09
4.412370393e-09
9.761233215e-09
8.709976235e-09
5.792053938e-09
4.340979388e-10
1.459896892e-09
4.645551835e-09
4.383034616e-09
2.12841178e-09
9.818727785e-10
1.354389252e-09
1.708664163e-09
1.72570914e-09
3.489951979e-10
5.661689349e-10
7.490809139e-10
1.019308552e-09
2.302686414e-10
7.303153676e-10
7.331493659e-10
7.698217739e-10
8.294707689e-10
5.900481388e-10
5.722421746e-10
6.828031171e-10
7.614948402e-10
6.304015158e-10
4.614919315e-10
5.129193887e-10
5.671062897e-10
6.858748676e-10
5.815548903e-10
4.340805559e-10
4.557482196e-10
4.333090337e-10
5.957297981e-10
5.284491175e-10
4.064593839e-10
3.750150319e-10
2.971648773e-10
5.107204299e-10
4.64555193e-10
3.604734847e-10
2.94705219e-10
1.798600629e-10
6.341611693e-10
4.755017436e-10
3.275178464e-10
2.298530959e-10
1.093092341e-10
2.421159691e-08
9.039001859e-09
1.205312212e-09
3.601548261e-10
1.400265054e-10
6.334751955e-14
4.761464922e-13
7.090374518e-12
1.020409806e-10
1.304945685e-09
1.827893142e-12
1.405820304e-11
2.027995665e-10
2.658464191e-09
2.843928507e-08
1.112269444e-11
7.71375918e-11
9.082583505e-10
8.855381115e-09
6.035733471e-08
4.289224191e-11
2.694195115e-10
2.672837628e-09
2.063114141e-08
1.025445912e-07
1.363093576e-10
7.932425962e-10
6.848669858e-09
4.346066271e-08
1.762736239e-07
3.894756509e-10
2.123478367e-09
1.571954751e-08
8.064886278e-08
2.699665629e-07
1.007571344e-09
5.057548815e-09
3.126122325e-08
1.290253958e-07
3.580166968e-07
2.369628079e-09
1.072756877e-08
5.434257576e-08
1.813271341e-07
4.237577288e-07
5.142650594e-09
2.061273703e-08
8.49453432e-08
2.348989512e-07
4.828366987e-07
1.04425863e-08
3.644824005e-08
1.233709329e-07
2.93597184e-07
5.545243642e-07
2.018121623e-08
6.052762355e-08
1.705339628e-07
3.604581452e-07
6.397883305e-07
3.878565726e-08
9.533094149e-08
2.264739935e-07
4.344179106e-07
7.272372963e-07
6.934721732e-08
1.415577683e-07
2.90647788e-07
5.122995195e-07
8.100198263e-07
1.176705666e-07
2.015019295e-07
3.637636662e-07
5.943832182e-07
8.927261924e-07
1.881074533e-07
2.771240322e-07
4.470554612e-07
6.82706255e-07
9.80609138e-07
2.792723202e-07
3.694645923e-07
5.424877914e-07
7.793027337e-07
1.073986708e-06
3.956450466e-07
4.818811372e-07
6.50040269e-07
8.795755189e-07
1.162678383e-06
5.230670521e-07
5.997194318e-07
7.520378498e-07
9.596733533e-07
1.211436322e-06
6.411883324e-07
7.046122442e-07
8.297169647e-07
9.941879107e-07
1.181270189e-06
7.358888808e-07
7.804588354e-07
8.65389551e-07
9.69037588e-07
1.0733143e-06
7.841527895e-07
8.057905651e-07
8.44691527e-07
8.868763963e-07
9.20893264e-07
7.548620696e-07
7.597904966e-07
7.672581271e-07
7.716462718e-07
7.680157517e-07
6.647907929e-07
6.630298348e-07
6.578489495e-07
6.476487903e-07
6.309699414e-07
5.506260745e-07
5.47158679e-07
5.389399711e-07
5.257849165e-07
5.076787939e-07
4.347621415e-07
4.315525922e-07
4.241978683e-07
4.129190979e-07
3.979950307e-07
3.291303254e-07
3.266401898e-07
3.210068049e-07
3.124398076e-07
3.012418748e-07
2.440821395e-07
2.423165861e-07
2.38279433e-07
2.321453411e-07
2.241589555e-07
1.769453806e-07
1.757382253e-07
1.729688826e-07
1.687594604e-07
1.632859905e-07
1.261151909e-07
1.253134851e-07
1.234694562e-07
1.206630451e-07
1.170124275e-07
8.862986782e-08
8.810878672e-08
8.690684237e-08
8.507412405e-08
8.268678306e-08
6.132829985e-08
6.09961733e-08
6.0227253e-08
5.905164473e-08
5.751716705e-08
4.157683715e-08
4.136994871e-08
4.088829901e-08
4.014923683e-08
3.918229858e-08
2.744166767e-08
2.731652366e-08
2.702290384e-08
2.657028339e-08
2.597659641e-08
1.753791726e-08
1.746493864e-08
1.729191951e-08
1.7023721e-08
1.667099796e-08
1.081586433e-08
1.077504742e-08
1.067702838e-08
1.052408735e-08
1.032237769e-08
6.425929127e-09
6.404114561e-09
6.350879079e-09
6.26717512e-09
6.156448703e-09
3.67449594e-09
3.663375192e-09
3.635703899e-09
3.591804105e-09
3.533541064e-09
2.019973405e-09
2.014589403e-09
2.00085509e-09
1.978830679e-09
1.949494503e-09
1.06561146e-09
1.063151058e-09
1.056669479e-09
1.046137059e-09
1.032049622e-09
5.38216228e-10
5.371670471e-10
5.342779221e-10
5.295028544e-10
5.230843692e-10
2.596328728e-10
2.592221536e-10
2.58016757e-10
2.559790833e-10
2.53223236e-10
1.193559057e-10
1.192126717e-10
1.187477534e-10
1.179366501e-10
1.168308454e-10
5.219500965e-11
5.215313047e-11
5.199037901e-11
5.169276421e-11
5.128246402e-11
2.168423538e-11
2.167588202e-11
2.162587093e-11
2.152699635e-11
2.138837899e-11
8.550985826e-12
8.551410724e-12
8.538939122e-12
8.510164865e-12
8.468655187e-12
3.199143926e-12
3.200756423e-12
3.198920169e-12
3.192147537e-12
3.181767638e-12
1.135310977e-12
1.136418064e-12
1.136811016e-12
1.135884524e-12
1.134109505e-12
3.821817852e-13
3.827413288e-13
3.832384874e-13
3.834435258e-13
3.835153478e-13
1.220604818e-13
1.223007039e-13
1.225800457e-13
1.228167305e-13
1.230617779e-13
3.696890394e-14
3.706095532e-14
3.718319211e-14
3.730837109e-14
3.745207904e-14
1.028261428e-14
1.030928717e-14
1.035047216e-14
1.03977005e-14
1.045497841e-14
2.801715489e-15
2.811402027e-15
2.826062316e-15
2.843311741e-15
2.864368205e-15
7.255281295e-16
7.284801421e-16
7.331284639e-16
7.387995139e-16
7.458263088e-16
1.785299858e-16
1.793638718e-16
1.807197431e-16
1.824190074e-16
1.845451655e-16
4.17304831e-17
4.195087138e-17
4.231817984e-17
4.278771086e-17
4.337958589e-17
9.253227953e-18
9.308031761e-18
9.401184807e-18
9.522096361e-18
9.675385074e-18
1.941544575e-18
1.954349997e-18
1.976463262e-18
2.005507925e-18
2.042473758e-18
3.820449429e-19
3.848535562e-19
3.897738179e-19
3.963150218e-19
4.046836278e-19
6.843681187e-20
6.902375497e-20
7.008174128e-20
7.154303268e-20
7.350019395e-20
1.151748479e-20
1.163122187e-20
1.183615856e-20
1.211355283e-20
1.246955013e-20
1.717555601e-21
1.737688371e-21
1.773911146e-21
1.822395591e-21
1.883334188e-21
2.234199362e-22
2.264307638e-22
2.317827619e-22
2.388127071e-22
2.473774692e-22
1.906742402e-23
1.930684401e-23
1.961754287e-23
1.974199665e-23
1.905838787e-23
0
0
0
0
0
0
0
0
0
0
0
0
0
0
0
0
0
0
0
0
0
0
0
0
0
0
0
0
0
0
0
0
0
0
0
4.628509106e-09
1.203667497e-07
1.690245173e-07
2.386961255e-07
3.884370899e-07
5.341357043e-07
6.236954512e-07
6.590727121e-07
7.0611426e-07
7.897935067e-07
8.907443819e-07
9.810317492e-07
1.057043402e-06
1.133101447e-06
1.217504138e-06
1.30587231e-06
1.383797368e-06
1.4047033e-06
1.312422054e-06
1.135081054e-06
9.343146364e-07
7.59494203e-07
6.161514704e-07
4.934810688e-07
3.866655253e-07
2.928816769e-07
2.182917523e-07
1.59304233e-07
1.143745236e-07
8.097078879e-08
5.642066933e-08
3.849720005e-08
2.556115627e-08
1.642830115e-08
1.018653874e-08
6.083836054e-09
3.49656974e-09
1.931635757e-09
1.023925208e-09
5.196442268e-10
2.518931788e-10
1.16377161e-10
5.115638964e-11
2.136754937e-11
8.473496924e-12
3.1886888e-12
1.138458032e-12
3.856419304e-13
1.23960606e-13
3.779296641e-14
1.056477376e-14
2.900420793e-15
7.567208003e-16
1.876151084e-16
4.419065529e-17
9.877095808e-18
2.08957542e-18
4.150309883e-19
7.584623965e-20
1.288355807e-20
1.952856735e-21
2.569902246e-22
1.721220417e-23
0
0
0
0
0
0
0
1.083143087e-08
6.794671919e-09
1.117194362e-09
3.662437224e-09
5.600703566e-10
3.707444166e-07
2.023944862e-06
1.16737047e-07
1.021437063e-08
3.073887639e-09
3.918385124e-07
9.45429594e-07
1.084977504e-07
7.106728823e-09
2.074580146e-09
5.173247751e-07
1.402913566e-06
4.518474017e-06
3.421446259e-07
2.608239466e-08
8.393955605e-07
2.505152321e-06
7.813409653e-06
7.882955695e-07
5.74528584e-08
1.055912364e-06
2.526754145e-06
5.372231797e-06
7.086440624e-07
6.714780146e-08
1.103697435e-06
2.079738072e-06
3.255493631e-06
5.154340996e-07
6.145700626e-08
1.05441769e-06
1.660209078e-06
2.170717686e-06
1.879350744e-06
2.410471914e-07
1.08088704e-06
1.772691398e-06
3.00795554e-06
7.510893483e-06
1.070385204e-06
1.191025113e-06
2.049705987e-06
3.651654514e-06
8.528207409e-06
1.404750952e-06
1.316615446e-06
2.219892729e-06
3.707299525e-06
7.444785457e-06
1.374968311e-06
1.401729599e-06
2.213943525e-06
3.341442052e-06
5.683425275e-06
1.452494745e-06
1.458045722e-06
2.182349976e-06
3.12195945e-06
5.013827233e-06
5.70643385e-06
1.519200187e-06
2.208226539e-06
3.141900287e-06
5.062322717e-06
8.528021604e-06
1.596237693e-06
2.278500301e-06
3.2254291e-06
5.101075833e-06
9.09125309e-06
1.675281212e-06
2.337717077e-06
3.239866856e-06
4.92469666e-06
8.50225064e-06
1.735123177e-06
2.361156055e-06
3.206943141e-06
4.78411944e-06
8.119858108e-06
1.713182663e-06
2.257740064e-06
3.027703739e-06
4.604911075e-06
7.949022729e-06
1.516246735e-06
1.78591793e-06
1.99972303e-06
2.228712887e-06
1.3673428e-06
1.229584151e-06
1.294209782e-06
1.251481015e-06
1.074664152e-06
7.115147488e-07
9.567487559e-07
9.28357425e-07
8.337431356e-07
6.808723588e-07
4.949733828e-07
7.49961589e-07
6.980493463e-07
6.130996755e-07
5.080445835e-07
3.987587648e-07
5.973705302e-07
5.472837877e-07
4.810138015e-07
4.066525374e-07
3.321047871e-07
4.755116884e-07
4.349021623e-07
3.848295452e-07
3.303639641e-07
2.760917078e-07
3.725551274e-07
3.417762221e-07
3.046231306e-07
2.644814697e-07
2.242572608e-07
2.827636449e-07
2.606634578e-07
2.3398979e-07
2.051029547e-07
1.75993006e-07
2.114480284e-07
1.960586494e-07
1.772521389e-07
1.567246283e-07
1.358845745e-07
1.54820347e-07
1.44400399e-07
1.314614973e-07
1.17194249e-07
1.025804451e-07
1.114978012e-07
1.045853586e-07
9.58552311e-08
8.611938589e-08
7.604742415e-08
7.915814508e-08
7.464751908e-08
6.884807179e-08
6.23010378e-08
5.545492686e-08
5.530684816e-08
5.241532308e-08
4.862080636e-08
4.427933184e-08
3.968804796e-08
3.78389646e-08
3.602826165e-08
3.359194526e-08
3.076252948e-08
2.773542047e-08
2.519321195e-08
2.409415399e-08
2.256878046e-08
2.07675684e-08
1.881764188e-08
1.62372584e-08
1.559538414e-08
1.467018118e-08
1.355736336e-08
1.233806398e-08
1.00965337e-08
9.737803825e-09
9.196803642e-09
8.532815843e-09
7.796190394e-09
6.047007155e-09
5.855807063e-09
5.551612402e-09
5.169958763e-09
4.741058814e-09
3.485052207e-09
3.388167074e-09
3.223888054e-09
3.012788613e-09
2.772362745e-09
1.930601622e-09
1.884158464e-09
1.79906126e-09
1.686809985e-09
1.557176628e-09
1.026245133e-09
1.005369036e-09
9.63189671e-10
9.059088997e-10
8.387892006e-10
5.223238268e-10
5.136533842e-10
4.937205319e-10
4.657454981e-10
4.324553245e-10
2.539517033e-10
2.507076047e-10
2.417659047e-10
2.287314476e-10
2.12960154e-10
1.176958747e-10
1.166568838e-10
1.128671149e-10
1.070915395e-10
9.99749052e-11
5.190517065e-11
5.165919089e-11
5.014894088e-11
4.772207071e-11
4.467087564e-11
2.175394308e-11
2.174301151e-11
2.118002815e-11
2.021525029e-11
1.897470833e-11
8.657007596e-12
8.690572278e-12
8.49544686e-12
8.133283447e-12
7.655673723e-12
3.269506452e-12
3.296935628e-12
3.234571554e-12
3.106402088e-12
2.932455576e-12
1.171625067e-12
1.186882676e-12
1.168739099e-12
1.126039337e-12
1.066152443e-12
3.983716455e-13
4.054479404e-13
4.007553348e-13
3.87384182e-13
3.679035093e-13
1.285424e-13
1.314472779e-13
1.304238605e-13
1.264953351e-13
1.205103694e-13
3.934104152e-14
4.04229425e-14
4.026347354e-14
3.918339599e-14
3.744823048e-14
1.103277561e-14
1.138550146e-14
1.138143348e-14
1.111121609e-14
1.06499538e-14
3.04231083e-15
3.155402912e-15
3.166756365e-15
3.102313242e-15
2.983432656e-15
7.970277682e-16
8.308465019e-16
8.372146884e-16
8.231024777e-16
7.942304533e-16
1.984266055e-16
2.078990757e-16
2.103490842e-16
2.075482813e-16
2.009486436e-16
4.693346254e-17
4.942664098e-17
5.021521821e-17
4.972635534e-17
4.830983308e-17
1.053593071e-17
1.115439334e-17
1.137971074e-17
1.130971527e-17
1.102439777e-17
2.23903468e-18
2.383301939e-18
2.441647152e-18
2.435212497e-18
2.381275009e-18
4.469935936e-19
4.785802906e-19
4.924227457e-19
4.929383012e-19
4.839084796e-19
8.255468809e-20
8.939557876e-20
9.268999792e-20
9.306726905e-20
9.112743267e-20
1.409197867e-20
1.528574929e-20
1.572928463e-20
1.545210399e-20
1.454951961e-20
2.155772048e-21
2.352810043e-21
2.420510511e-21
2.369719488e-21
2.216144149e-21
2.856993116e-22
3.098796417e-22
3.107181961e-22
2.787572523e-22
1.798951707e-22
1.348946778e-23
0
0
0
0
0
0
0
0
0
0
0
0
0
0
0
0
0
0
0
0
0
0
0
0
0
0
0
0
0
0
0
0
0
0
0
0
0
0
0
6.693128407e-11
4.25387742e-12
2.844699406e-13
4.017137446e-14
9.917812396e-15
3.069647092e-15
9.923050426e-16
3.166462575e-16
9.769749608e-17
2.872048562e-17
7.815866761e-18
1.794561794e-18
2.199957464e-19
0
0
0
0
0
0
0
0
0
0
0
0
0
0
0
0
0
0
0
0
0
0
0
0
0
0
0
0
0
0
0
0
0
0
0
0
0
0
0
0
0
0
0
0
0
0
0
5.506134572e-10
4.340309654e-11
2.358476918e-12
2.092563075e-13
3.732495499e-14
1.023120781e-14
3.405548001e-15
1.20763622e-15
4.28186603e-16
1.465486115e-16
4.722275525e-17
1.390095782e-17
3.506867949e-18
6.182857421e-19
3.604898546e-21
0
0
0
0
0
0
0
0
0
0
0
0
0
0
0
0
0
0
0
0
0
0
0
0
0
0
0
0
0
0
0
0
0
0
0
0
0
0
0
0
0
0
0
0
0
7.628533539e-10
1.017641873e-10
6.660319735e-12
6.126403254e-13
1.086711283e-13
3.134638076e-14
1.168300207e-14
4.782686992e-15
1.952244145e-15
7.604066363e-16
2.755741397e-16
9.130249717e-17
2.717835194e-17
7.020975802e-18
1.406820104e-18
1.072470095e-19
0
0
0
0
0
0
0
0
0
0
0
0
0
0
0
0
0
0
0
0
0
0
0
0
0
0
0
0
0
0
0
0
0
0
0
0
0
0
0
0
0
0
0
0
7.703549585e-09
1.576657836e-09
1.285882884e-10
7.371471212e-12
8.643315052e-13
2.02724369e-13
7.030716629e-14
2.824885413e-14
1.160556896e-14
4.632868116e-15
1.739433678e-15
6.0157841e-16
1.889710329e-16
5.319055052e-17
1.310028097e-17
2.618784786e-18
2.867402612e-19
0
0
0
0
0
0
0
0
0
0
0
0
0
0
0
0
0
0
0
0
0
0
0
0
0
0
0
0
0
0
0
0
0
0
0
0
0
0
0
0
0
0
0
1.66430116e-08
5.249071645e-09
9.609454715e-10
8.075503804e-11
7.55697467e-12
1.390734978e-12
4.118059516e-13
1.509379867e-13
5.891691861e-14
2.285162575e-14
8.482475186e-15
2.940183316e-15
9.398455439e-16
2.724638604e-16
7.042220231e-17
1.581689764e-17
2.82299509e-18
2.784307187e-19
0
0
0
0
0
0
0
0
0
0
0
0
0
0
0
0
0
0
0
0
0
0
0
0
0
0
0
0
0
0
0
0
0
0
0
0
0
0
0
0
0
0
1.372051968e-08
6.556147204e-09
2.233657825e-09
4.183780698e-10
4.110913162e-11
5.746719716e-12
1.415106358e-12
4.751289864e-13
1.782963144e-13
6.77980597e-14
2.492240329e-14
8.631885714e-15
2.769237841e-15
8.117527848e-16
2.145451145e-16
5.046008834e-17
1.007723542e-17
1.555813244e-18
7.235154838e-20
0
0
0
0
0
0
0
0
0
0
0
0
0
0
0
0
0
0
0
0
0
0
0
0
0
0
0
0
0
0
0
0
0
0
0
0
0
0
0
0
0
7.104099e-09
4.408751557e-09
2.56648785e-09
1.0212067e-09
1.925701919e-10
2.220761306e-11
4.195526134e-12
1.241475778e-12
4.452979175e-13
1.663867038e-13
6.070359904e-14
2.094855663e-14
6.717373766e-15
1.979049959e-15
5.31054934e-16
1.283597186e-16
2.703801921e-17
4.848271311e-18
5.627095585e-19
0
0
0
0
0
0
0
0
0
0
0
0
0
0
0
0
0
0
0
0
0
0
0
0
0
0
0
0
0
0
0
0
0
0
0
0
0
0
0
0
0
1.872857026e-08
5.609733085e-09
3.556944097e-09
1.95235015e-09
7.181979501e-10
1.051231517e-10
1.434987366e-11
3.39242222e-12
1.091724878e-12
3.883849997e-13
1.377739114e-13
4.660119661e-14
1.471014889e-14
4.285170523e-15
1.144842678e-15
2.786409521e-16
6.027014271e-17
1.166313837e-17
1.766218123e-18
9.514714176e-20
0
0
0
0
0
0
0
0
0
0
0
0
0
0
0
0
0
0
0
0
0
0
0
0
0
0
0
0
0
0
0
0
0
0
0
0
0
0
0
0
9.55543865e-08
1.564866505e-08
7.458151577e-09
4.277173497e-09
2.231751716e-09
5.621946867e-10
6.290783538e-11
1.034638486e-11
2.73813861e-12
8.805021923e-13
2.943287755e-13
9.557035913e-14
2.92699472e-14
8.342359539e-15
2.200394769e-15
5.348758532e-16
1.173865301e-16
2.379043154e-17
4.103194064e-18
4.465041838e-19
0
0
0
0
0
0
0
0
0
0
0
0
0
0
0
0
0
0
0
0
0
0
0
0
0
0
0
0
0
0
0
0
0
0
0
0
0
0
0
0
1.499407197e-07
1.867004442e-08
8.420684978e-09
5.682963843e-09
3.73177874e-09
1.669233612e-09
2.612313671e-10
3.082422714e-11
6.447865233e-12
1.832251092e-12
5.709295746e-13
1.768758834e-13
5.237038446e-14
1.458848293e-14
3.804734718e-15
9.267519027e-16
2.068869692e-16
4.366008803e-17
8.209003967e-18
1.178690456e-18
3.583525792e-20
0
0
0
0
0
0
0
0
0
0
0
0
0
0
0
0
0
0
0
0
0
0
0
0
0
0
0
0
0
0
0
0
0
0
0
0
0
0
0
1.705231368e-07
1.8993825e-08
6.574350806e-09
5.394035618e-09
4.472735042e-09
2.892748037e-09
7.667399518e-10
9.554312974e-11
1.556981271e-11
3.717927311e-12
1.042214931e-12
3.011970698e-13
8.50780476e-14
2.304447989e-14
5.955047632e-15
1.46382271e-15
3.353562023e-16
7.400115999e-17
1.494244309e-17
2.517076862e-18
2.224170939e-19
0
0
0
0
0
0
0
0
0
0
0
0
0
0
0
0
0
0
0
0
0
0
0
0
0
0
0
0
0
0
0
0
0
0
0
0
0
0
0
2.029256344e-07
2.175061274e-08
5.506493127e-09
4.879330647e-09
4.921362149e-09
4.022301623e-09
1.697136171e-09
2.43896113e-10
3.534447615e-11
6.995694428e-12
1.719963275e-12
4.561085555e-13
1.219466738e-13
3.215463837e-14
8.311268305e-15
2.09280785e-15
4.997289813e-16
1.163386276e-16
2.510575118e-17
4.725051197e-18
6.14714318e-19
2.300348775e-21
0
0
0
0
0
0
0
0
0
0
0
0
0
0
0
0
0
0
0
0
0
0
0
0
0
0
0
0
0
0
0
0
0
0
0
0
0
0
8.162617433e-07
9.271353458e-08
1.285309133e-08
6.775178118e-09
6.562951494e-09
5.815205206e-09
3.182198896e-09
5.824079307e-10
7.776494958e-11
1.267523952e-11
2.598624583e-12
6.134261769e-13
1.539608016e-13
3.981956549e-14
1.04589796e-14
2.740660075e-15
6.898875957e-16
1.700756811e-16
3.902431722e-17
7.977893131e-18
1.264694833e-18
5.963376824e-20
0
0
0
0
0
0
0
0
0
0
0
0
0
0
0
0
0
0
0
0
0
0
0
0
0
0
0
0
0
0
0
0
0
0
0
0
0
0
1.370870009e-06
1.77754938e-07
2.285768884e-08
8.332650707e-09
8.565632912e-09
8.261285199e-09
5.294609786e-09
1.413451718e-09
1.710369614e-10
2.401362958e-11
3.949778422e-12
7.95638647e-13
1.840961474e-13
4.672542869e-14
1.254759822e-14
3.426193033e-15
9.039130829e-16
2.332976554e-16
5.611877017e-17
1.217646761e-17
2.171627717e-18
1.992385003e-19
0
0
0
0
0
0
0
0
0
0
0
0
0
0
0
0
0
0
0
0
0
0
0
0
0
0
0
0
0
0
0
0
0
0
0
0
0
0
1.636312435e-06
2.415878619e-07
3.071966827e-08
8.446014971e-09
1.038881351e-08
1.110017724e-08
7.748790684e-09
2.856454764e-09
3.882007906e-10
4.779658156e-11
6.050426241e-12
9.934344238e-13
2.092136604e-13
5.239060833e-14
1.443500846e-14
4.084656119e-15
1.117304551e-15
2.978843566e-16
7.418963239e-17
1.67870658e-17
3.217106793e-18
3.895441721e-19
0
0
0
0
0
0
0
0
0
0
0
0
0
0
0
0
0
0
0
0
0
0
0
0
0
0
0
0
0
0
0
0
0
0
0
0
0
0
1.688623313e-06
2.781247564e-07
3.916659685e-08
9.595666043e-09
1.407417555e-08
1.474663616e-08
1.023707656e-08
4.637214385e-09
8.419476999e-10
9.969512033e-11
9.566516596e-12
1.225993177e-12
2.341476724e-13
5.840082007e-14
1.643833064e-14
4.748936892e-15
1.32657348e-15
3.607504704e-16
9.165352854e-17
2.121523998e-17
4.23224923e-18
5.872155648e-19
4.310710652e-21
0
0
0
0
0
0
0
0
0
0
0
0
0
0
0
0
0
0
0
0
0
0
0
0
0
0
0
0
0
0
0
0
0
0
0
0
0
1.702082083e-06
2.96044618e-07
4.422394208e-08
2.044588924e-08
2.190921399e-08
1.918682761e-08
1.256856514e-08
6.08884486e-09
1.621255729e-09
2.143273262e-10
1.743850063e-11
1.788877847e-12
3.055185987e-13
7.284297626e-14
2.00383263e-14
5.725808264e-15
1.592117296e-15
4.314125145e-16
1.095089171e-16
2.545990254e-17
5.169215747e-18
7.692336977e-19
1.482928534e-20
0
0
0
0
0
0
0
0
0
0
0
0
0
0
0
0
0
0
0
0
0
0
0
0
0
0
0
0
0
0
0
0
0
0
0
0
0
1.619318012e-06
2.652308015e-07
3.729366813e-08
2.97651906e-08
3.125529975e-08
2.38992074e-08
1.463117013e-08
7.222899999e-09
2.587562463e-09
5.286066099e-10
5.344717796e-11
4.705249415e-12
6.008497198e-13
1.151123768e-13
2.808416701e-14
7.514105463e-15
2.011357533e-15
5.318172267e-16
1.328032395e-16
3.058032749e-17
6.220048439e-18
9.62882966e-19
3.385542588e-20
0
0
0
0
0
0
0
0
0
0
0
0
0
0
0
0
0
0
0
0
0
0
0
0
0
0
0
0
0
0
0
0
0
0
0
0
0
3.679957926e-07
7.360330202e-08
5.440617617e-08
5.601503261e-08
4.30996906e-08
2.85421897e-08
1.667641946e-08
8.503447381e-09
3.647654931e-09
1.161609435e-09
2.140052533e-10
2.148317558e-11
1.969590052e-12
2.551435719e-13
4.80899129e-14
1.127154101e-14
2.816487183e-15
7.145184597e-16
1.736302768e-16
3.926624732e-17
7.943731903e-18
1.271442602e-18
7.064360875e-20
0
0
0
0
0
0
0
0
0
0
0
0
0
0
0
0
0
0
0
0
0
0
0
0
0
0
0
0
0
0
0
0
0
0
0
0
0
3.434725086e-07
1.616597655e-07
1.126815862e-07
7.865603887e-08
5.211396048e-08
3.257728691e-08
1.887528352e-08
9.973547326e-09
4.720365578e-09
1.920809526e-09
5.873558524e-10
1.047444596e-10
1.032925832e-11
9.317498884e-13
1.168003119e-13
2.094140084e-14
4.57684683e-15
1.084491916e-15
2.536618202e-16
5.608192909e-17
1.126837354e-17
1.868143833e-18
1.514332657e-19
0
0
0
0
0
0
0
0
0
0
0
0
0
0
0
0
0
0
0
0
0
0
0
0
0
0
0
0
0
0
0
0
0
0
0
0
0
3.191060905e-07
2.050437402e-07
1.360744865e-07
8.979469808e-08
5.790882404e-08
3.586024383e-08
2.102088433e-08
1.153851372e-08
5.859087519e-09
2.697012888e-09
1.075638201e-09
3.237794499e-10
5.667002244e-11
5.387438351e-12
4.635869681e-13
5.493306289e-14
9.165960187e-15
1.898460534e-15
4.165518125e-16
8.929282815e-17
1.778366961e-17
3.049824575e-18
3.295962417e-19
0
0
0
0
0
0
0
0
0
0
0
0
0
0
0
0
0
0
0
0
0
0
0
0
0
0
0
0
0
0
0
0
0
0
0
0
0
2.909143348e-07
2.023686834e-07
1.384976414e-07
9.28805586e-08
6.055099898e-08
3.803528368e-08
2.285065396e-08
1.304343418e-08
7.01563342e-09
3.507115009e-09
1.590134806e-09
6.235989131e-10
1.84071687e-10
3.117444411e-11
2.793745057e-12
2.255257019e-13
2.484402691e-14
3.925455704e-15
7.564770774e-16
1.531302825e-16
2.989638634e-17
5.238821662e-18
6.766244189e-19
6.036164972e-21
0
0
0
0
0
0
0
0
0
0
0
0
0
0
0
0
0
0
0
0
0
0
0
0
0
0
0
0
0
0
0
0
0
0
0
0
2.556895792e-07
1.863707385e-07
1.318842986e-07
9.066394503e-08
6.042364993e-08
3.886984792e-08
2.404662794e-08
1.424854184e-08
8.038692043e-09
4.275237669e-09
2.107567181e-09
9.366055746e-10
3.573841566e-10
1.017108072e-10
1.627016371e-11
1.338412552e-12
9.925264459e-14
1.039987274e-14
1.543406465e-15
2.771182884e-16
5.167676659e-17
9.07319618e-18
1.297185618e-18
5.76065702e-20
0
0
0
0
0
0
0
0
0
0
0
0
0
0
0
0
0
0
0
0
0
0
0
0
0
0
0
0
0
0
0
0
0
0
0
0
2.194559999e-07
1.653068553e-07
1.202102586e-07
8.462347359e-08
5.771118019e-08
3.80851775e-08
2.425552099e-08
1.48671629e-08
8.729680883e-09
4.872492751e-09
2.553261843e-09
1.232170936e-09
5.313196043e-10
1.946236753e-10
5.241434491e-11
7.733426989e-12
5.680298379e-13
3.945874621e-14
3.923985527e-15
5.509690733e-16
9.245341697e-17
1.579360611e-17
2.381277638e-18
1.919473116e-19
0
0
0
0
0
0
0
0
0
0
0
0
0
0
0
0
0
0
0
0
0
0
0
0
0
0
0
0
0
0
0
0
0
0
0
0
1.815557623e-07
1.392767456e-07
1.034052482e-07
7.489495954e-08
5.23596318e-08
3.541400581e-08
2.319401543e-08
1.466386543e-08
8.914167245e-09
5.177143714e-09
2.844783546e-09
1.458042104e-09
6.825356725e-10
2.824568649e-10
9.783946383e-11
2.436593213e-11
3.22401607e-12
2.139020262e-13
1.388887735e-14
1.321472102e-15
1.760075472e-16
2.744109289e-17
4.1524375e-18
4.310966942e-19
0
0
0
0
0
0
0
0
0
0
0
0
0
0
0
0
0
0
0
0
0
0
0
0
0
0
0
0
0
0
0
0
0
0
0
0
1.44844108e-07
1.137068138e-07
8.668027703e-08
6.414047419e-08
4.601897177e-08
3.195448144e-08
2.145673102e-08
1.393307978e-08
8.722370943e-09
5.234275449e-09
2.987044624e-09
1.603078662e-09
7.965454629e-10
3.581463999e-10
1.405878199e-10
4.534307095e-11
1.018926873e-11
1.170934563e-12
6.909143771e-14
4.243393408e-15
3.884932383e-16
4.889101731e-17
6.892054927e-18
7.876099639e-19
1.147282638e-20
0
0
0
0
0
0
0
0
0
0
0
0
0
0
0
0
0
0
0
0
0
0
0
0
0
0
0
0
0
0
0
0
0
0
0
1.13385086e-07
9.054132762e-08
7.023781615e-08
5.296663868e-08
3.88255012e-08
2.763717968e-08
1.905341864e-08
1.269160564e-08
8.143111129e-09
5.021188338e-09
2.954681831e-09
1.644191978e-09
8.547056091e-10
4.079926881e-10
1.743472381e-10
6.408947507e-11
1.891994833e-11
3.72327272e-12
3.55576533e-13
1.842645834e-14
1.076349693e-15
9.484350321e-17
1.108206886e-17
1.241250194e-18
4.48804977e-20
0
0
0
0
0
0
0
0
0
0
0
0
0
0
0
0
0
0
0
0
0
0
0
0
0
0
0
0
0
0
0
0
0
0
0
8.664871225e-08
7.022122508e-08
5.535475507e-08
4.247125489e-08
3.171570347e-08
2.303261542e-08
1.62384074e-08
1.107651198e-08
7.283000717e-09
4.59395681e-09
2.771017755e-09
1.58664214e-09
8.538342065e-10
4.260100764e-10
1.933018298e-10
7.750681622e-11
2.626141432e-11
6.945005295e-12
1.156952728e-12
8.868170957e-14
4.079226977e-15
2.295608471e-16
1.930083977e-17
1.881970808e-18
9.580921273e-20
0
0
0
0
0
0
0
0
0
0
0
0
0
0
0
0
0
0
0
0
0
0
0
0
0
0
0
0
0
0
0
0
0
0
0
6.495206931e-08
5.333526182e-08
4.264668966e-08
3.322041326e-08
2.520577095e-08
1.861221043e-08
1.33530244e-08
9.28335329e-09
6.229044292e-09
4.016359919e-09
2.474872614e-09
1.449055302e-09
8.007863586e-10
4.130344039e-10
1.957980737e-10
8.346034394e-11
3.097058632e-11
9.52099976e-12
2.213158673e-12
3.059551528e-13
1.895626421e-14
8.081865073e-16
4.461017786e-17
3.325624947e-18
1.940984853e-19
0
0
0
0
0
0
0
0
0
0
0
0
0
0
0
0
0
0
0
0
0
0
0
0
0
0
0
0
0
0
0
0
0
0
0
4.783064006e-08
3.97264306e-08
3.215143576e-08
2.536200185e-08
1.949370672e-08
1.458599794e-08
1.060786928e-08
7.481318767e-09
5.099926763e-09
3.344956111e-09
2.100533375e-09
1.25511493e-09
7.079056051e-10
3.744799959e-10
1.834533991e-10
8.178862985e-11
3.237793907e-11
1.097865208e-11
3.019236008e-12
6.041267084e-13
6.799278391e-14
3.45701053e-15
1.381324344e-16
7.114141896e-18
3.896257169e-19
0
0
0
0
0
0
0
0
0
0
0
0
0
0
0
0
0
0
0
0
0
0
0
0
0
0
0
0
0
0
0
0
0
0
0
3.451866369e-08
2.894285438e-08
2.365471442e-08
1.884653971e-08
1.463216671e-08
1.105969407e-08
8.126268471e-09
5.792274991e-09
3.994138561e-09
2.654455773e-09
1.691506936e-09
1.027693578e-09
5.910350501e-10
3.186264941e-10
1.599521025e-10
7.37069585e-11
3.057568305e-11
1.111117646e-11
3.399175945e-12
8.242384497e-13
1.386874279e-13
1.228457162e-14
5.072951546e-16
1.81227958e-17
7.872087561e-19
0
0
0
0
0
0
0
0
0
0
0
0
0
0
0
0
0
0
0
0
0
0
0
0
0
0
0
0
0
0
0
0
0
0
0
2.429086901e-08
2.052356809e-08
1.690369407e-08
1.357182704e-08
1.061773487e-08
8.086618391e-09
5.987356071e-09
4.301316923e-09
2.990689414e-09
2.006074192e-09
1.292625989e-09
7.955603582e-10
4.646152635e-10
2.552757082e-10
1.305854849e-10
6.171771024e-11
2.652596311e-11
1.014842044e-11
3.354192348e-12
9.162416742e-13
1.929724269e-13
2.675585617e-14
1.843975302e-15
6.097480878e-17
1.954151819e-18
1.045585073e-20
0
0
0
0
0
0
0
0
0
0
0
0
0
0
0
0
0
0
0
0
0
0
0
0
0
0
0
0
0
0
0
0
0
0
1.657628135e-08
1.409252099e-08
1.167809167e-08
9.432530441e-09
7.422752248e-09
5.685971817e-09
4.234254346e-09
3.059872103e-09
2.14075831e-09
1.445676946e-09
9.388015808e-10
5.833661467e-10
3.447065561e-10
1.922548871e-10
1.001992136e-10
4.832600333e-11
2.135794577e-11
8.501431648e-12
2.977341891e-12
8.874606992e-13
2.140261852e-13
3.853314284e-14
4.248888993e-15
2.082049705e-16
5.744804825e-18
6.414883743e-20
0
0
0
0
0
0
0
0
0
0
0
0
0
0
0
0
0
0
0
0
0
0
0
0
0
0
0
0
0
0
0
0
0
0
1.092278182e-08
9.334498878e-09
7.774163689e-09
6.309716596e-09
4.988540177e-09
3.838717069e-09
2.871497367e-09
2.084504709e-09
1.465258922e-09
9.945551345e-10
6.495687071e-10
4.064504715e-10
2.422797818e-10
1.366225362e-10
7.228375588e-11
3.547904655e-11
1.603434279e-11
6.586094373e-12
2.412785401e-12
7.68173621e-13
2.046423678e-13
4.296347027e-14
6.474860497e-15
5.275723879e-16
1.892259395e-17
2.980027627e-19
0
0
0
0
0
0
0
0
0
0
0
0
0
0
0
0
0
0
0
0
0
0
0
0
0
0
0
0
0
0
0
0
0
0
6.932861429e-09
5.951857773e-09
4.978431988e-09
4.057167397e-09
3.220065713e-09
2.486988755e-09
1.866956173e-09
1.360014197e-09
9.593887082e-10
6.536491184e-10
4.287204708e-10
2.696113111e-10
1.617722316e-10
9.20389054e-11
4.927423034e-11
2.458584712e-11
1.131765587e-11
4.768905224e-12
1.81096638e-12
6.069832788e-13
1.742844613e-13
4.091599953e-14
7.393384497e-15
8.700585062e-16
5.468298096e-17
1.295676533e-18
0
0
0
0
0
0
0
0
0
0
0
0
0
0
0
0
0
0
0
0
0
0
0
0
0
0
0
0
0
0
0
0
0
0
4.233474524e-09
3.649482332e-09
3.064339703e-09
2.506144578e-09
1.995562497e-09
1.545901478e-09
1.163750022e-09
8.500191633e-10
6.012093048e-10
4.107467844e-10
2.702405655e-10
1.705854634e-10
1.028459138e-10
5.889426428e-11
3.181741937e-11
1.608625501e-11
7.529900765e-12
3.240152903e-12
1.266886611e-12
4.424387642e-13
1.346493178e-13
3.430479067e-14
6.748967978e-15
9.442689232e-16
8.362642723e-17
3.211982559e-18
1.645320017e-21
0
0
0
0
0
0
0
0
0
0
0
0
0
0
0
0
0
0
0
0
0
0
0
0
0
0
0
0
0
0
0
0
0
2.485025728e-09
2.150298374e-09
1.811708047e-09
1.486254284e-09
1.186707771e-09
9.215462082e-10
6.952409688e-10
5.08812372e-10
3.605503645e-10
2.468005626e-10
1.627280852e-10
1.029969146e-10
6.23222223e-11
3.587423908e-11
1.952609255e-11
9.975482572e-12
4.739962807e-12
2.075844273e-12
8.314999231e-13
3.002439795e-13
9.572297727e-14
2.597666367e-14
5.556371347e-15
8.783229892e-16
9.795807851e-17
5.887711781e-18
6.057903121e-20
0
0
0
0
0
0
0
0
0
0
0
0
0
0
0
0
0
0
0
0
0
0
0
0
0
0
0
0
0
0
0
0
0
1.400713344e-09
1.216173335e-09
1.027769181e-09
8.45369214e-10
6.765237889e-10
5.263718404e-10
3.977553575e-10
2.91502489e-10
2.068223814e-10
1.417520982e-10
9.360222951e-11
5.935922254e-11
3.601577973e-11
2.081339326e-11
1.139410641e-11
5.870646763e-12
2.824947185e-12
1.256832365e-12
5.137562896e-13
1.90727341e-13
6.319545947e-14
1.81072835e-14
4.080637053e-15
5.017596444e-16
5.071553966e-17
2.999392257e-18
3.084582489e-20
0
0
0
0
0
0
0
0
0
0
0
0
0
0
0
0
0
0
0
0
0
0
0
0
0
0
0
0
0
0
0
0
0
7.56967077e-10
6.592621079e-10
5.586118417e-10
4.605076679e-10
3.692164264e-10
2.877014482e-10