/*--------------------------------*- C++ -*----------------------------------*\
  =========                 |
  \\      /  F ield         | OpenFOAM: The Open Source CFD Toolbox
   \\    /   O peration     | Website:  https://openfoam.org
    \\  /    A nd           | Version:  10
     \\/     M anipulation  |
\*---------------------------------------------------------------------------*/
FoamFile
{
    format      ascii;
    class       volScalarField;
    location    "0.02499901733";
    object      HCCOH;
}
// * * * * * * * * * * * * * * * * * * * * * * * * * * * * * * * * * * * * * //

dimensions      [0 0 0 0 0 0 0];

internalField   nonuniform List<scalar> 
5170
(
0
0
0
0
0
0
0
0
0
0
0
0
0
0
0
0
0
0
0
0
0
0
0
0
0
0
0
0
0
0
0
0
0
0
0
0
0
0
0
0
0
0
0
0
0
0
0
0
0
0
0
0
0
0
0
0
0
0
0
0
0
0
0
0
0
0
0
0
0
0
0
0
0
0
0
0
0
0
0
0
0
0
0
0
0
0
0
0
0
0
0
0
8.736317011e-17
9.360914645e-16
3.897907892e-15
1.489069328e-15
8.454210549e-15
6.727211653e-14
4.697907272e-13
2.233203039e-12
0
1.523048477e-13
1.925572831e-15
0
1.182722789e-14
1.5567112e-13
2.380634344e-13
0
1.686661268e-14
0
3.34293631e-14
1.341349829e-13
1.734513939e-15
0
6.139667578e-15
1.590879903e-14
5.27879568e-14
0
0
2.652155013e-16
0
1.120038391e-14
0
0
0
0
0
5.674755735e-15
3.087877019e-13
0
0
0
0
1.574322793e-10
1.960876853e-09
4.574723565e-09
1.806357645e-10
0
0
1.016759667e-08
1.153803325e-08
2.131130378e-09
9.127238454e-10
6.98471437e-09
2.304913874e-09
4.330360373e-09
9.606675499e-09
8.545835773e-09
5.898769692e-09
5.727357263e-10
1.629882649e-09
5.008741905e-09
4.715317876e-09
1.9581921e-09
9.631268115e-10
1.347734978e-09
1.512848441e-09
1.510767518e-09
4.810787901e-10
5.591294757e-10
7.576803318e-10
1.014990889e-09
3.559828609e-10
6.920005575e-10
7.102623241e-10
7.527298572e-10
8.212551365e-10
5.573819916e-10
5.642732637e-10
6.649101571e-10
7.42392737e-10
6.253071571e-10
4.546228668e-10
4.993155816e-10
5.519064405e-10
6.694518549e-10
5.668517031e-10
4.209716895e-10
4.41038753e-10
4.196731313e-10
5.803971385e-10
5.134556477e-10
3.919656985e-10
3.614863412e-10
2.843827284e-10
4.956027417e-10
4.502182052e-10
3.464053658e-10
2.811229002e-10
1.669947439e-10
6.195326891e-10
4.605924028e-10
3.128661946e-10
2.156825467e-10
9.514664676e-11
2.4206388e-08
8.665790837e-09
1.188264876e-09
3.44855446e-10
1.293477688e-10
6.317285788e-14
4.747856633e-13
7.069574942e-12
1.017651185e-10
1.302365662e-09
1.821286202e-12
1.400928953e-11
2.021102344e-10
2.649072883e-09
2.834144541e-08
1.108618261e-11
7.686953394e-11
9.052250633e-10
8.82624958e-09
6.015159725e-08
4.278595913e-11
2.688380759e-10
2.667770201e-09
2.059007886e-08
1.023508504e-07
1.359485732e-10
7.908313898e-10
6.830075798e-09
4.338896981e-08
1.76152324e-07
3.888135426e-10
2.117995649e-09
1.568253262e-08
8.053689343e-08
2.697907536e-07
1.007507665e-09
5.054056956e-09
3.122975423e-08
1.289058145e-07
3.577602866e-07
2.371450067e-09
1.073179266e-08
5.433664601e-08
1.812541169e-07
4.235737152e-07
5.147934605e-09
2.062763912e-08
8.496640161e-08
2.348812283e-07
4.82761759e-07
1.045255401e-08
3.647207493e-08
1.234083613e-07
2.936215166e-07
5.545466773e-07
2.018976939e-08
6.054413936e-08
1.705712033e-07
3.605130208e-07
6.398726629e-07
3.878743334e-08
9.535201846e-08
2.26525753e-07
4.345137359e-07
7.273964252e-07
6.942030097e-08
1.416273318e-07
2.907420626e-07
5.124405576e-07
8.102318623e-07
1.176447067e-07
2.015123336e-07
3.638252572e-07
5.945013792e-07
8.929052731e-07
1.881258391e-07
2.771651819e-07
4.471308061e-07
6.8282631e-07
9.807956956e-07
2.79253753e-07
3.694612985e-07
5.425596661e-07
7.795365117e-07
1.074486958e-06
3.957140341e-07
4.821135462e-07
6.506068997e-07
8.806472752e-07
1.164427444e-06
5.241420104e-07
6.01125299e-07
7.5421216e-07
9.632277545e-07
1.217283212e-06
6.435052307e-07
7.074244485e-07
8.338134969e-07
1.000558608e-06
1.191008609e-06
7.39432579e-07
7.847269711e-07
8.713397758e-07
9.777154787e-07
1.085660372e-06
7.890389889e-07
8.114840622e-07
8.519627903e-07
8.961904031e-07
9.325061273e-07
7.610842173e-07
7.663758857e-07
7.745466211e-07
7.798012024e-07
7.77027804e-07
6.709133841e-07
6.6925196e-07
6.642569093e-07
6.542583519e-07
6.377356909e-07
5.560493004e-07
5.525870502e-07
5.443637336e-07
5.311694358e-07
5.129604304e-07
4.393583993e-07
4.361228877e-07
4.287041219e-07
4.173228928e-07
4.022608203e-07
3.328901541e-07
3.303756425e-07
3.246867405e-07
3.160314163e-07
3.047129392e-07
2.470897929e-07
2.453037468e-07
2.41219229e-07
2.350120763e-07
2.269288842e-07
1.792323432e-07
1.780095907e-07
1.75204372e-07
1.709399506e-07
1.653942412e-07
1.277747442e-07
1.269622028e-07
1.250930824e-07
1.222482014e-07
1.185471956e-07
8.979785526e-08
8.926966818e-08
8.805112954e-08
8.619297082e-08
8.37723406e-08
6.214001028e-08
6.180333765e-08
6.102381254e-08
5.983192962e-08
5.82761456e-08
4.213910954e-08
4.192935994e-08
4.144102257e-08
4.069169002e-08
3.971126576e-08
2.782857913e-08
2.77016412e-08
2.740383025e-08
2.694475794e-08
2.634257786e-08
1.779934066e-08
1.772525839e-08
1.754964751e-08
1.727744264e-08
1.691943315e-08
1.098729439e-08
1.094582086e-08
1.084624282e-08
1.069087969e-08
1.048596569e-08
6.534288907e-09
6.512098337e-09
6.457961506e-09
6.372848944e-09
6.260250946e-09
3.740370111e-09
3.729045435e-09
3.700875853e-09
3.656190498e-09
3.596880726e-09
2.058480633e-09
2.052991333e-09
2.03899386e-09
2.016550327e-09
1.986653277e-09
1.087245395e-09
1.084733122e-09
1.07811888e-09
1.0673725e-09
1.052997637e-09
5.498766295e-10
5.488036077e-10
5.458508624e-10
5.409715912e-10
5.344125935e-10
2.656456473e-10
2.652246679e-10
2.63990513e-10
2.61904853e-10
2.590838608e-10
1.223130321e-10
1.221657751e-10
1.216887415e-10
1.208569071e-10
1.197227059e-10
5.357816164e-11
5.353490804e-11
5.336747297e-11
5.306154717e-11
5.263975036e-11
2.229816245e-11
2.228943497e-11
2.223780528e-11
2.213589071e-11
2.199299947e-11
8.809184688e-12
8.809556797e-12
8.796608931e-12
8.766842504e-12
8.723906487e-12
3.301941828e-12
3.303577735e-12
3.301637797e-12
3.29459073e-12
3.28379819e-12
1.174040241e-12
1.175173572e-12
1.175561315e-12
1.17457913e-12
1.17271029e-12
3.959885801e-13
3.965640284e-13
3.970719881e-13
3.972750066e-13
3.973364038e-13
1.267189097e-13
1.269667762e-13
1.272541982e-13
1.274964827e-13
1.277461436e-13
3.845593294e-14
3.855117939e-14
3.867746662e-14
3.880650472e-14
3.895437951e-14
1.071861437e-14
1.074628187e-14
1.078895964e-14
1.083783894e-14
1.089705742e-14
2.926411385e-15
2.936485121e-15
2.951720598e-15
2.969631808e-15
2.991478882e-15
7.593610965e-16
7.624384328e-16
7.672815003e-16
7.731865679e-16
7.804991339e-16
1.87241329e-16
1.881125383e-16
1.895285702e-16
1.913022512e-16
1.935206279e-16
4.385977842e-17
4.409055935e-17
4.447506028e-17
4.496639564e-17
4.558549219e-17
9.747210247e-18
9.804718156e-18
9.902441807e-18
1.002925461e-17
1.018996577e-17
2.050147883e-18
2.063615208e-18
2.08686592e-18
2.117398257e-18
2.156254389e-18
4.045758756e-19
4.075391433e-19
4.127278673e-19
4.196197352e-19
4.284265342e-19
7.27658733e-20
7.339051851e-20
7.451676645e-20
7.606894834e-20
7.81260048e-20
1.231393832e-20
1.243450857e-20
1.265172763e-20
1.294588445e-20
1.332308739e-20
1.852107889e-21
1.873427447e-21
1.91175936e-21
1.963076782e-21
2.027608515e-21
2.435025984e-22
2.467103321e-22
2.524025364e-22
2.598665092e-22
2.689312468e-22
2.113841155e-23
2.138464285e-23
2.166489402e-23
2.163166295e-23
2.053425571e-23
0
0
0
0
0
0
0
0
0
0
0
0
0
0
0
0
0
0
0
0
0
0
0
0
0
0
0
0
0
0
0
0
0
0
0
4.621605206e-09
1.20043138e-07
1.684575773e-07
2.383106826e-07
3.883244358e-07
5.339143311e-07
6.232787651e-07
6.588059653e-07
7.060011004e-07
7.898206756e-07
8.908718289e-07
9.81244184e-07
1.057332056e-06
1.133330691e-06
1.217763254e-06
1.306624586e-06
1.386077039e-06
1.412775984e-06
1.324780104e-06
1.150025314e-06
9.474270709e-07
7.690059638e-07
6.229761694e-07
4.986622683e-07
3.908214424e-07
2.962581979e-07
2.209877894e-07
1.613587026e-07
1.158725606e-07
8.20323661e-08
5.716438339e-08
3.9016557e-08
2.592109665e-08
1.667300584e-08
1.034789655e-08
6.186367445e-09
3.55921774e-09
1.968436649e-09
1.044696605e-09
5.308908392e-10
2.577188155e-10
1.19255474e-10
5.250910474e-11
2.197097915e-11
8.728611423e-12
3.29082174e-12
1.177159169e-12
3.99521969e-13
1.286729949e-13
3.93069025e-14
1.101090078e-14
3.028953707e-15
7.918498846e-16
1.967266353e-16
4.643439867e-17
1.040155296e-17
2.205776899e-18
4.393322175e-19
8.057359811e-20
1.37613599e-20
2.101395947e-21
2.79105863e-22
1.831182192e-23
0
0
0
0
0
0
0
1.081864542e-08
6.768294033e-09
1.110002467e-09
3.575051295e-09
5.579844827e-10
3.699628309e-07
2.021244925e-06
1.165896372e-07
1.016378009e-08
3.064846976e-09
3.906865941e-07
9.433354083e-07
1.087498796e-07
7.07280326e-09
2.070306441e-09
5.164940408e-07
1.400293916e-06
4.530321728e-06
3.413587528e-07
2.601718918e-08
8.391889673e-07
2.504745949e-06
7.813631823e-06
7.867640986e-07
5.735889629e-08
1.05544212e-06
2.524359584e-06
5.362520634e-06
7.071396294e-07
6.69750414e-08
1.102919742e-06
2.077309313e-06
3.247812086e-06
5.145744404e-07
6.141448567e-08
1.054127307e-06
1.659524379e-06
2.170657745e-06
1.894728745e-06
2.428067654e-07
1.080724273e-06
1.77233928e-06
3.007855155e-06
7.513654062e-06
1.071204124e-06
1.191038852e-06
2.049744908e-06
3.651603611e-06
8.528831578e-06
1.405055911e-06
1.316801746e-06
2.22018088e-06
3.708406436e-06
7.44853005e-06
1.375582302e-06
1.402058916e-06
2.21514349e-06
3.343338489e-06
5.688685991e-06
1.450542514e-06
1.45842624e-06
2.181617931e-06
3.123503609e-06
5.017295561e-06
5.705008849e-06
1.519518884e-06
2.208864278e-06
3.143774074e-06
5.064599733e-06
8.53265067e-06
1.596587408e-06
2.279215621e-06
3.224959176e-06
5.103599005e-06
9.097679709e-06
1.676365992e-06
2.339510695e-06
3.241880759e-06
4.92605257e-06
8.497073225e-06
1.738153083e-06
2.365589583e-06
3.209165268e-06
4.776089702e-06
8.080829258e-06
1.724586364e-06
2.276247799e-06
3.053987927e-06
4.638165927e-06
8.003862653e-06
1.531927143e-06
1.804258077e-06
2.026901307e-06
2.34062503e-06
1.601190087e-06
1.247789036e-06
1.313229178e-06
1.264021858e-06
1.081515993e-06
7.199746964e-07
9.72021383e-07
9.445323729e-07
8.466724955e-07
6.871228279e-07
4.955152248e-07
7.603201291e-07
7.085636643e-07
6.222539099e-07
5.145603682e-07
4.025852361e-07
6.043668816e-07
5.539528601e-07
4.868003501e-07
4.112242394e-07
3.354158382e-07
4.805975981e-07
4.396013613e-07
3.889311426e-07
3.337565367e-07
2.787723973e-07
3.765752291e-07
3.454620739e-07
3.078789351e-07
2.672612201e-07
2.265621737e-07
2.860176408e-07
2.636532325e-07
2.366606078e-07
2.074280113e-07
1.77970759e-07
2.14051427e-07
1.984623608e-07
1.794158587e-07
1.586278264e-07
1.375239378e-07
1.568113001e-07
1.462486784e-07
1.331353727e-07
1.186771526e-07
1.038685847e-07
1.129552569e-07
1.059463539e-07
9.709548562e-08
8.722591702e-08
7.701657483e-08
8.019473763e-08
7.562143934e-08
6.974176376e-08
6.310480235e-08
5.616548217e-08
5.603524598e-08
5.31037609e-08
4.925715556e-08
4.485658255e-08
4.020338099e-08
3.834887182e-08
3.651281692e-08
3.404291791e-08
3.117491913e-08
2.81068904e-08
2.554743441e-08
2.443238749e-08
2.28854249e-08
2.105906025e-08
1.908211785e-08
1.647866752e-08
1.582690686e-08
1.488798586e-08
1.375892746e-08
1.252196132e-08
1.025614127e-08
9.891512736e-09
9.34201929e-09
8.667786363e-09
7.919874374e-09
6.148703573e-09
5.954143752e-09
5.644878431e-09
5.256978286e-09
4.82110663e-09
3.547361605e-09
3.44865684e-09
3.281471546e-09
3.06670776e-09
2.822136927e-09
1.967302392e-09
1.91992365e-09
1.833227824e-09
1.718909847e-09
1.586905935e-09
1.047015746e-09
1.025684699e-09
9.826617575e-10
9.242603133e-10
8.558365728e-10
5.336000108e-10
5.247224193e-10
5.043635025e-10
4.758050868e-10
4.418258442e-10
2.598087979e-10
2.564779578e-10
2.473312008e-10
2.340061386e-10
2.178860973e-10
1.205981052e-10
1.195267814e-10
1.156435016e-10
1.097299774e-10
1.024449055e-10
5.327333761e-11
5.301734677e-11
5.146693249e-11
4.897791323e-11
4.584937157e-11
2.236624501e-11
2.235328588e-11
2.177415307e-11
2.078289656e-11
1.950869067e-11
8.916761149e-12
8.950552729e-12
8.749386485e-12
8.37658458e-12
7.885119791e-12
3.373864236e-12
3.401839309e-12
3.337388938e-12
3.20519736e-12
3.025867379e-12
1.211313839e-12
1.226958132e-12
1.208156451e-12
1.164028275e-12
1.102168608e-12
4.126591809e-13
4.199410919e-13
4.150622816e-13
4.012153626e-13
3.810533454e-13
1.334116901e-13
1.364098357e-13
1.353408769e-13
1.312639749e-13
1.250573135e-13
4.091142996e-14
4.203102534e-14
4.186281315e-14
4.073951348e-14
3.89364341e-14
1.149705607e-14
1.186300127e-14
1.185802152e-14
1.157634294e-14
1.109600545e-14
3.176664746e-15
3.294275867e-15
3.305903553e-15
3.238571502e-15
3.114519423e-15
8.33899959e-16
8.691509015e-16
8.757477138e-16
8.609657818e-16
8.307748464e-16
2.080294885e-16
2.179255745e-16
2.204760033e-16
2.175341844e-16
2.106182054e-16
4.93079625e-17
5.191828331e-17
5.274196141e-17
5.222674e-17
5.073898211e-17
1.109325885e-17
1.174217102e-17
1.197819043e-17
1.190406211e-17
1.160373217e-17
2.363087549e-18
2.514818541e-18
2.576096844e-18
2.569202426e-18
2.512318132e-18
4.730661009e-19
5.063806619e-19
5.209763262e-19
5.21517995e-19
5.118739106e-19
8.76173634e-20
9.487046872e-20
9.839802096e-20
9.878295204e-20
9.673791386e-20
1.504225736e-20
1.630557174e-20
1.677401628e-20
1.650645617e-20
1.564012438e-20
2.317301217e-21
2.526227089e-21
2.596888587e-21
2.542537298e-21
2.382686419e-21
3.097331978e-22
3.353679524e-22
3.346111212e-22
2.964716814e-22
1.887551538e-22
1.465221795e-23
6.071822328e-25
0
0
0
0
0
0
0
0
0
0
0
0
0
0
0
0
0
0
0
0
0
0
0
0
0
0
0
0
0
0
0
0
0
0
0
0
0
0
6.694191786e-11
4.252661897e-12
2.844775411e-13
4.021103504e-14
9.937926582e-15
3.078404974e-15
9.959123543e-16
3.180458077e-16
9.821301335e-17
2.889986158e-17
7.874439195e-18
1.811975842e-18
2.241229031e-19
0
0
0
0
0
0
0
0
0
0
0
0
0
0
0
0
0
0
0
0
0
0
0
0
0
0
0
0
0
0
0
0
0
0
0
0
0
0
0
0
0
0
0
0
0
0
0
5.507081402e-10
4.343593604e-11
2.362600063e-12
2.098122297e-13
3.744455868e-14
1.02667987e-14
3.41869761e-15
1.212940958e-15
4.303714684e-16
1.474297047e-16
4.756008459e-17
1.402040552e-17
3.544718526e-18
6.281679873e-19
4.061437696e-21
0
0
0
0
0
0
0
0
0
0
0
0
0
0
0
0
0
0
0
0
0
0
0
0
0
0
0
0
0
0
0
0
0
0
0
0
0
0
0
0
0
0
0
0
0
7.626957404e-10
1.018197814e-10
6.670872774e-12
6.138163183e-13
1.088802172e-13
3.141157969e-14
1.17123124e-14
4.798346016e-15
1.960586075e-15
7.645478059e-16
2.774420596e-16
9.205765897e-17
2.744955317e-17
7.106483484e-18
1.429479805e-18
1.113410475e-19
0
0
0
0
0
0
0
0
0
0
0
0
0
0
0
0
0
0
0
0
0
0
0
0
0
0
0
0
0
0
0
0
0
0
0
0
0
0
0
0
0
0
0
0
7.703698105e-09
1.576329058e-09
1.287791817e-10
7.38858142e-12
8.661380071e-13
2.031005193e-13
7.046065757e-14
2.833144794e-14
1.165115092e-14
4.656538433e-15
1.75060495e-15
6.063072687e-16
1.907528626e-16
5.37841472e-17
1.327364392e-17
2.662023139e-18
2.948702673e-19
0
0
0
0
0
0
0
0
0
0
0
0
0
0
0
0
0
0
0
0
0
0
0
0
0
0
0
0
0
0
0
0
0
0
0
0
0
0
0
0
0
0
0
1.66358665e-08
5.247510629e-09
9.610294632e-10
8.083528715e-11
7.568109771e-12
1.393018775e-12
4.126785586e-13
1.513777346e-13
5.914869191e-14
2.296891002e-14
8.537427858e-15
2.963583613e-15
9.488328171e-16
2.755355888e-16
7.134678842e-17
1.605911913e-17
2.876409546e-18
2.873847144e-19
0
0
0
0
0
0
0
0
0
0
0
0
0
0
0
0
0
0
0
0
0
0
0
0
0
0
0
0
0
0
0
0
0
0
0
0
0
0
0
0
0
0
1.369360434e-08
6.556668429e-09
2.233175189e-09
4.183399425e-10
4.116030818e-11
5.758327208e-12
1.418690277e-12
4.7668375e-13
1.790680146e-13
6.817875355e-14
2.509856052e-14
8.706538201e-15
2.797818235e-15
8.215348913e-16
2.175079771e-16
5.125259242e-17
1.026022719e-17
1.591630508e-18
7.65764019e-20
0
0
0
0
0
0
0
0
0
0
0
0
0
0
0
0
0
0
0
0
0
0
0
0
0
0
0
0
0
0
0
0
0
0
0
0
0
0
0
0
0
7.096772072e-09
4.40847746e-09
2.56427855e-09
1.019311072e-09
1.925025456e-10
2.224251114e-11
4.204583357e-12
1.24505227e-12
4.470786755e-13
1.672901752e-13
6.113396941e-14
2.113527939e-14
6.790130791e-15
2.004332152e-15
5.388578167e-16
1.304885911e-16
2.754300332e-17
4.953320466e-18
5.800123806e-19
0
0
0
0
0
0
0
0
0
0
0
0
0
0
0
0
0
0
0
0
0
0
0
0
0
0
0
0
0
0
0
0
0
0
0
0
0
0
0
0
0
1.88492892e-08
5.613063391e-09
3.551236282e-09
1.948216637e-09
7.169446003e-10
1.052894759e-10
1.438853465e-11
3.402784425e-12
1.096151181e-12
3.905633876e-13
1.388075888e-13
4.704835385e-14
1.488337418e-14
4.344916866e-15
1.163169354e-15
2.836359199e-16
6.14654117e-17
1.19200079e-17
1.813382132e-18
1.007298107e-19
0
0
0
0
0
0
0
0
0
0
0
0
0
0
0
0
0
0
0
0
0
0
0
0
0
0
0
0
0
0
0
0
0
0
0
0
0
0
0
0
9.568087465e-08
1.566516073e-08
7.454283658e-09
4.270796032e-09
2.226970162e-09
5.629711639e-10
6.318413441e-11
1.039022134e-11
2.751410622e-12
8.861595922e-13
2.968431668e-13
9.66113004e-14
2.965909525e-14
8.472582761e-15
2.239372472e-15
5.453247755e-16
1.198722708e-16
2.433257056e-17
4.20835439e-18
4.628923795e-19
0
0
0
0
0
0
0
0
0
0
0
0
0
0
0
0
0
0
0
0
0
0
0
0
0
0
0
0
0
0
0
0
0
0
0
0
0
0
0
0
1.500268765e-07
1.869686511e-08
8.419517399e-09
5.67279761e-09
3.722079145e-09
1.67098933e-09
2.629089645e-10
3.10025838e-11
6.484840503e-12
1.845768961e-12
5.765234536e-13
1.790815892e-13
5.316194602e-14
1.484415682e-14
3.879105506e-15
9.463188478e-16
2.11511326e-16
4.468247997e-17
8.415547752e-18
1.214900999e-18
3.929989256e-20
0
0
0
0
0
0
0
0
0
0
0
0
0
0
0
0
0
0
0
0
0
0
0
0
0
0
0
0
0
0
0
0
0
0
0
0
0
0
0
1.706918464e-07
1.934183768e-08
6.664777982e-09
5.385834539e-09
4.457018205e-09
2.890273122e-09
7.71354018e-10
9.630540481e-11
1.568653425e-11
3.75237198e-12
1.054735213e-12
3.057150955e-13
8.659058286e-14
2.350676977e-14
6.084225724e-15
1.497047514e-15
3.431674548e-16
7.575753691e-17
1.531221329e-17
2.587635677e-18
2.327341946e-19
0
0
0
0
0
0
0
0
0
0
0
0
0
0
0
0
0
0
0
0
0
0
0
0
0
0
0
0
0
0
0
0
0
0
0
0
0
0
0
2.026718723e-07
2.177864511e-08
5.512249301e-09
4.862201037e-09
4.896941909e-09
4.008130838e-09
1.705740579e-09
2.466891782e-10
3.574755989e-11
7.083862803e-12
1.746413331e-12
4.645728916e-13
1.245395831e-13
3.28960988e-14
8.509737382e-15
2.143019871e-15
5.11649763e-16
1.191210294e-16
2.572175213e-17
4.850536417e-18
6.363253071e-19
2.861048635e-21
0
0
0
0
0
0
0
0
0
0
0
0
0
0
0
0
0
0
0
0
0
0
0
0
0
0
0
0
0
0
0
0
0
0
0
0
0
0
8.156263538e-07
9.257401154e-08
1.283385071e-08
6.742694282e-09
6.519341847e-09
5.784771323e-09
3.190457301e-09
5.930707663e-10
7.866613519e-11
1.289138281e-11
2.65123697e-12
6.27576169e-13
1.578026892e-13
4.083668375e-14
1.072147585e-14
2.807179544e-15
7.061886347e-16
1.740855182e-16
3.996758264e-17
8.183559949e-18
1.30380754e-18
6.425575523e-20
0
0
0
0
0
0
0
0
0
0
0
0
0
0
0
0
0
0
0
0
0
0
0
0
0
0
0
0
0
0
0
0
0
0
0
0
0
0
1.370338541e-06
1.774419377e-07
2.27932246e-08
8.268803406e-09
8.478209029e-09
8.202238699e-09
5.300231637e-09
1.436836384e-09
1.742579816e-10
2.455825193e-11
4.054439507e-12
8.1853116e-13
1.894204189e-13
4.800531541e-14
1.286599599e-14
3.507930324e-15
9.248113406e-16
2.387164697e-16
5.746149791e-17
1.248472668e-17
2.234616203e-18
2.090637093e-19
0
0
0
0
0
0
0
0
0
0
0
0
0
0
0
0
0
0
0
0
0
0
0
0
0
0
0
0
0
0
0
0
0
0
0
0
0
0
1.634888169e-06
2.409290354e-07
3.058551457e-08
8.339852119e-09
1.021105606e-08
1.099363177e-08
7.750446767e-09
2.897917686e-09
3.975189403e-10
4.928124177e-11
6.261822948e-12
1.028302954e-12
2.159086414e-13
5.384405804e-14
1.478816238e-14
4.177844586e-15
1.14224977e-15
3.046563818e-16
7.593255915e-17
1.720213159e-17
3.30749414e-18
4.054327933e-19
0
0
0
0
0
0
0
0
0
0
0
0
0
0
0
0
0
0
0
0
0
0
0
0
0
0
0
0
0
0
0
0
0
0
0
0
0
0
1.685883883e-06
2.773825871e-07
3.903604018e-08
9.291490872e-09
1.367658216e-08
1.459466428e-08
1.024625624e-08
4.696004284e-09
8.622306966e-10
1.034106975e-10
9.982441447e-12
1.274416344e-12
2.414794335e-13
5.986605249e-14
1.680060784e-14
4.84937548e-15
1.354616976e-15
3.685861117e-16
9.373615044e-17
2.173562003e-17
4.349486799e-18
6.090964621e-19
5.222909671e-21
0
0
0
0
0
0
0
0
0
0
0
0
0
0
0
0
0
0
0
0
0
0
0
0
0
0
0
0
0
0
0
0
0
0
0
0
0
1.695962714e-06
2.955549961e-07
4.424093206e-08
1.947864931e-08
2.149232703e-08
1.906156903e-08
1.260026769e-08
6.160870405e-09
1.65513518e-09
2.217788277e-10
1.815972489e-11
1.84897721e-12
3.129256734e-13
7.430063251e-14
2.04154133e-14
5.83301846e-15
1.623387206e-15
4.404524352e-16
1.119715715e-16
2.608081997e-17
5.310859039e-18
7.965136864e-19
1.711829704e-20
0
0
0
0
0
0
0
0
0
0
0
0
0
0
0
0
0
0
0
0
0
0
0
0
0
0
0
0
0
0
0
0
0
0
0
0
0
1.639297988e-06
2.710248667e-07
3.83403828e-08
2.883701824e-08
3.074867872e-08
2.380204599e-08
1.468790903e-08
7.2948346e-09
2.626131854e-09
5.381237546e-10
5.425132852e-11
4.768853633e-12
6.095221523e-13
1.169093862e-13
2.85519821e-14
7.647459037e-15
2.049572754e-15
5.426931524e-16
1.357366987e-16
3.131567015e-17
6.387718421e-18
9.956692934e-19
3.740240076e-20
0
0
0
0
0
0
0
0
0
0
0
0
0
0
0
0
0
0
0
0
0
0
0
0
0
0
0
0
0
0
0
0
0
0
0
0
0
3.910043894e-07
7.413218185e-08
5.061085813e-08
5.420494033e-08
4.271607376e-08
2.852456573e-08
1.674295067e-08
8.565213867e-09
3.681412946e-09
1.173265888e-09
2.160502947e-10
2.167747777e-11
1.990168909e-12
2.584174074e-13
4.880766778e-14
1.145829623e-14
2.867335117e-15
7.285413224e-16
1.77337987e-16
4.018336856e-17
8.151336513e-18
1.312384864e-18
7.592841502e-20
0
0
0
0
0
0
0
0
0
0
0
0
0
0
0
0
0
0
0
0
0
0
0
0
0
0
0
0
0
0
0
0
0
0
0
0
0
3.437618948e-07
1.564834727e-07
1.097786614e-07
7.793178665e-08
5.199148877e-08
3.261478294e-08
1.895047328e-08
1.003384424e-08
4.754731669e-09
1.935658988e-09
5.916765404e-10
1.054091554e-10
1.039801252e-11
9.402511221e-13
1.182268399e-13
2.12520589e-14
4.654037543e-15
1.104711552e-15
2.588518626e-16
5.734283209e-17
1.155108113e-17
1.924362537e-18
1.597654276e-19
0
0
0
0
0
0
0
0
0
0
0
0
0
0
0
0
0
0
0
0
0
0
0
0
0
0
0
0
0
0
0
0
0
0
0
0
0
3.182457942e-07
2.041588718e-07
1.358248517e-07
8.982063722e-08
5.80116445e-08
3.598199252e-08
2.112384133e-08
1.160814376e-08
5.898453196e-09
2.715926121e-09
1.083095765e-09
3.258273621e-10
5.697925552e-11
5.421177133e-12
4.678301855e-13
5.562151346e-14
9.307429969e-15
1.932038923e-15
4.24741552e-16
9.123041673e-17
1.821286524e-17
3.135743356e-18
3.43528215e-19
0
0
0
0
0
0
0
0
0
0
0
0
0
0
0
0
0
0
0
0
0
0
0
0
0
0
0
0
0
0
0
0
0
0
0
0
0
2.930007411e-07
2.034193895e-07
1.390798572e-07
9.324925971e-08
6.081559313e-08
3.822969854e-08
2.298470078e-08
1.312744411e-08
7.063264797e-09
3.531556747e-09
1.601384844e-09
6.279955555e-10
1.852996995e-10
3.136657866e-11
2.814165256e-12
2.278616464e-13
2.518771921e-14
3.991359428e-15
7.709710207e-16
1.563916612e-16
3.060230703e-17
5.379952175e-18
7.006741902e-19
7.201931149e-21
0
0
0
0
0
0
0
0
0
0
0
0
0
0
0
0
0
0
0
0
0
0
0
0
0
0
0
0
0
0
0
0
0
0
0
0
2.578335121e-07
1.876946531e-07
1.327222229e-07
9.122037354e-08
6.080341511e-08
3.912713945e-08
2.421401109e-08
1.435128454e-08
8.097867313e-09
4.307168415e-09
2.12360037e-09
9.439345974e-10
3.602508672e-10
1.025210071e-10
1.639769013e-11
1.350871788e-12
1.004888554e-13
1.056397231e-14
1.572262854e-15
2.829772757e-16
5.28899703e-17
9.312554636e-18
1.339237186e-18
6.230201266e-20
0
0
0
0
0
0
0
0
0
0
0
0
0
0
0
0
0
0
0
0
0
0
0
0
0
0
0
0
0
0
0
0
0
0
0
0
2.214317281e-07
1.666843804e-07
1.211539932e-07
8.528215337e-08
5.816616316e-08
3.839033884e-08
2.445244453e-08
1.498872596e-08
8.801357365e-09
4.912817431e-09
2.574784812e-09
1.24289533e-09
5.361537483e-10
1.964782466e-10
5.292836364e-11
7.811460408e-12
5.748284504e-13
4.005307514e-14
3.995468447e-15
5.625500981e-16
9.462768657e-17
1.620786524e-17
2.454781693e-18
2.020316397e-19
0
0
0
0
0
0
0
0
0
0
0
0
0
0
0
0
0
0
0
0
0
0
0
0
0
0
0
0
0
0
0
0
0
0
0
0
1.833705228e-07
1.406340618e-07
1.043946759e-07
7.559892004e-08
5.284449456e-08
3.574216048e-08
2.340786287e-08
1.479820701e-08
8.995601497e-09
5.224718204e-09
2.871421625e-09
1.472153144e-09
6.894493062e-10
2.854815904e-10
9.895397345e-11
2.465923033e-11
3.265192481e-12
2.170935585e-13
1.413901628e-14
1.349242341e-15
1.801822159e-16
2.81650838e-17
4.277933324e-18
4.495341846e-19
0
0
0
0
0
0
0
0
0
0
0
0
0
0
0
0
0
0
0
0
0
0
0
0
0
0
0
0
0
0
0
0
0
0
0
0
1.464534566e-07
1.149546795e-07
8.761885673e-08
6.482528554e-08
4.650116755e-08
3.228261095e-08
2.167334822e-08
1.407241732e-08
8.809348339e-09
5.286873697e-09
3.017681036e-09
1.620078835e-09
8.053805162e-10
3.623422184e-10
1.423443801e-10
4.595311414e-11
1.033682791e-11
1.189229664e-12
7.033535626e-14
4.332759269e-15
3.978005167e-16
5.019767018e-17
7.099819175e-18
8.182255114e-19
1.349701562e-20
0
0
0
0
0
0
0
0
0
0
0
0
0
0
0
0
0
0
0
0
0
0
0
0
0
0
0
0
0
0
0
0
0
0
0
1.147405078e-07
9.161104864e-08
7.10560797e-08
5.357377975e-08
3.926281996e-08
2.794249248e-08
1.925987346e-08
1.282751607e-08
8.230272151e-09
5.075525717e-09
2.987411815e-09
1.663049335e-09
8.649562776e-10
4.131554234e-10
1.766961836e-10
6.501865917e-11
1.921845662e-11
3.787477004e-12
3.622906706e-13
1.882156875e-14
1.102598518e-15
9.742464462e-17
1.141955528e-17
1.287826652e-18
4.937920442e-20
0
0
0
0
0
0
0
0
0
0
0
0
0
0
0
0
0
0
0
0
0
0
0
0
0
0
0
0
0
0
0
0
0
0
0
8.772556743e-08
7.108243126e-08
5.602337707e-08
4.297587722e-08
3.208639731e-08
2.329794953e-08
1.642345253e-08
1.120210094e-08
7.365929762e-09
4.646985273e-09
2.803882404e-09
1.606171879e-09
8.648311594e-10
4.317964972e-10
1.960938537e-10
7.87084898e-11
2.670321612e-11
7.073103375e-12
1.18048442e-12
9.067335605e-14
4.18177601e-15
2.359813817e-16
1.989968915e-17
1.951668422e-18
1.0301108e-19
0
0
0
0
0
0
0
0
0
0
0
0
0
0
0
0
0
0
0
0
0
0
0
0
0
0
0
0
0
0
0
0
0
0
0
6.577116845e-08
5.399938531e-08
4.317068256e-08
3.362338155e-08
2.550822699e-08
1.883395309e-08
1.351181428e-08
9.394252254e-09
6.304348317e-09
4.065896156e-09
2.506243007e-09
1.46815516e-09
8.118399196e-10
4.1904413e-10
1.988228889e-10
8.484050702e-11
3.15237226e-11
9.706377386e-12
2.260482538e-12
3.131617008e-13
1.944785532e-14
8.313406112e-16
4.601713405e-17
3.446780795e-18
2.058819622e-19
0
0
0
0
0
0
0
0
0
0
0
0
0
0
0
0
0
0
0
0
0
0
0
0
0
0
0
0
0
0
0
0
0
0
0
4.843850267e-08
4.02267735e-08
3.255307636e-08
2.567688267e-08
1.973503547e-08
1.476685617e-08
1.074031999e-08
7.5759397e-09
5.1656438e-09
3.389133358e-09
2.129148749e-09
1.272846845e-09
7.183800115e-10
3.803154458e-10
1.864824615e-10
8.322956235e-11
3.299117558e-11
1.120387756e-11
3.086804878e-12
6.189493853e-13
6.982570676e-14
3.559296069e-15
1.426012829e-16
7.372510508e-18
4.099450829e-19
0
0
0
0
0
0
0
0
0
0
0
0
0
0
0
0
0
0
0
0
0
0
0
0
0
0
0
0
0
0
0
0
0
0
0
3.496500118e-08
2.931576649e-08
2.395898492e-08
1.908923773e-08
1.482149267e-08
1.120409398e-08
8.233834808e-09
5.870385703e-09
4.049277973e-09
2.692133805e-09
1.71630287e-09
1.043333638e-09
6.004190451e-10
3.239483422e-10
1.627768375e-10
7.509113671e-11
3.119003359e-11
1.135149425e-11
3.478758616e-12
8.452371683e-13
1.42546877e-13
1.265862685e-14
5.241809872e-16
1.878974759e-17
8.246527997e-19
0
0
0
0
0
0
0
0
0
0
0
0
0
0
0
0
0
0
0
0
0
0
0
0
0
0
0
0
0
0
0
0
0
0
0
2.461614867e-08
2.079882148e-08
1.713128945e-08
1.375581611e-08
1.076315097e-08
8.198913101e-09
6.071981041e-09
4.363435152e-09
3.034992063e-09
2.036676334e-09
1.313007037e-09
8.085753416e-10
4.725395739e-10
2.598376183e-10
1.330469268e-10
6.295044179e-11
2.709015867e-11
1.037939413e-11
3.436253262e-12
9.40441158e-13
1.9849452e-13
2.75884127e-14
1.906470587e-15
6.32391081e-17
2.040208382e-18
1.251033452e-20
0
0
0
0
0
0
0
0
0
0
0
0
0
0
0
0
0
0
0
0
0
0
0
0
0
0
0
0
0
0
0
0
0
0
1.68098701e-08
1.429209196e-08
1.184470159e-08
9.568476444e-09
7.531141398e-09
5.770351946e-09
4.298315808e-09
3.107220456e-09
2.17475066e-09
1.469313386e-09
9.54663546e-10
5.935894784e-10
3.509966622e-10
1.959246339e-10
1.022096524e-10
4.935010508e-11
2.183786095e-11
8.704785468e-12
3.053442118e-12
9.117859235e-13
2.203454294e-13
3.976316023e-14
4.39631102e-15
2.161263483e-16
5.992640335e-18
7.065987945e-20
0
0
0
0
0
0
0
0
0
0
0
0
0
0
0
0
0
0
0
0
0
0
0
0
0
0
0
0
0
0
0
0
0
0
1.10862466e-08
9.475120126e-09
7.892340899e-09
6.406746744e-09
5.066348034e-09
3.899609168e-09
2.917950541e-09
2.118994652e-09
1.490129826e-09
1.011927904e-09
6.612850385e-10
4.140478828e-10
2.469906882e-10
1.393967453e-10
7.382296657e-11
3.627469662e-11
1.641411642e-11
6.751362754e-12
2.47713168e-12
7.900178631e-13
2.108754738e-13
4.43769297e-14
6.706619575e-15
5.484626738e-16
1.976476256e-17
3.183227146e-19
0
0
0
0
0
0
0
0
0
0
0
0
0
0
0
0
0
0
0
0
0
0
0
0
0
0
0
0
0
0
0
0
0
0
7.043353377e-09
6.047398906e-09
5.059112871e-09
4.123707084e-09
3.273641303e-09
2.529072735e-09
1.899170843e-09
1.38400937e-09
9.767458656e-10
6.658122129e-10
4.369518657e-10
2.749704349e-10
1.65112868e-10
9.402041621e-11
5.038417717e-11
2.51675342e-11
1.159946483e-11
4.894216495e-12
1.861317632e-12
6.248943828e-13
1.797657452e-13
4.230211419e-14
7.665047355e-15
9.054074811e-16
5.717265156e-17
1.369626088e-18
0
0
0
0
0
0
0
0
0
0
0
0
0
0
0
0
0
0
0
0
0
0
0
0
0
0
0
0
0
0
0
0
0
0
4.30529087e-09
3.71184718e-09
3.117212076e-09
2.549906234e-09
2.030911934e-09
1.573749414e-09
1.185123137e-09
8.65977273e-10
6.127788847e-10
4.188722972e-10
2.757525084e-10
1.74183834e-10
1.05096634e-10
6.023570327e-11
3.257408451e-11
1.648690551e-11
7.726896189e-12
3.32928244e-12
1.303611986e-12
4.559891066e-13
1.390244657e-13
3.550346454e-14
7.013456254e-15
9.862123027e-16
8.791841288e-17
3.412743041e-18
2.460945934e-21
0
0
0
0
0
0
0
0
0
0
0
0
0
0
0
0
0
0
0
0
0
0
0
0
0
0
0
0
0
0
0
0
0
2.529856177e-09
2.189378511e-09
1.844954965e-09
1.513857533e-09
1.209065622e-09
9.392010339e-10
7.088182691e-10
5.189672035e-10
3.679235711e-10
2.519859535e-10
1.662504788e-10
1.053002206e-10
6.376613081e-11
3.673771878e-11
2.001568175e-11
1.023672426e-11
4.869973999e-12
2.135536485e-12
8.566150166e-13
3.097916631e-13
9.894303395e-14
2.691402659e-14
5.782493019e-15
9.191549798e-16
1.032565728e-16
6.271000042e-18
6.919313516e-20
0
0
0
0
0
0
0
0
0
0
0
0
0
0
0
0
0
0
0
0
0
0
0
0
0
0
0
0
0
0
0
0
0
1.42758653e-09
1.239681363e-09
1.047830134e-09
8.620694262e-10
6.900810561e-10
5.370970464e-10
4.060154175e-10
2.97687127e-10
2.113164872e-10
1.449146055e-10
9.575171493e-11
6.076582773e-11
3.689863763e-11
2.13424636e-11
1.169517882e-11
6.032270462e-12
2.906152331e-12
1.294630978e-12
5.299338572e-13
1.970295419e-13
6.539505361e-14
1.877394124e-14
4.252962332e-15
5.341670551e-16
5.487362998e-17
3.310568373e-18
3.842537203e-20
0
0
0
0
0
0
0
0
0
0
0
0
0
0
0
0
0
0
0
0
0
0
0
0
0
0
0
0
0
0
0
0
0
7.724273135e-10
6.728283972e-10
5.70219746e-10
4.701923995e-10
3.770923975e-10
2.939403519e-10
2.2247027e-10