/*--------------------------------*- C++ -*----------------------------------*\
  =========                 |
  \\      /  F ield         | OpenFOAM: The Open Source CFD Toolbox
   \\    /   O peration     | Website:  https://openfoam.org
    \\  /    A nd           | Version:  10
     \\/     M anipulation  |
\*---------------------------------------------------------------------------*/
FoamFile
{
    format      ascii;
    class       volScalarField;
    location    "0.02499901733";
    object      HCCO_0;
}
// * * * * * * * * * * * * * * * * * * * * * * * * * * * * * * * * * * * * * //

dimensions      [0 0 0 0 0 0 0];

internalField   nonuniform List<scalar> 
5170
(
0
0
0
0
0
0
0
0
0
0
0
0
0
0
0
0
0
0
0
0
0
0
0
0
0
0
0
0
0
0
0
0
0
0
0
0
0
0
0
0
0
0
0
0
0
0
0
0
0
0
0
0
0
0
0
0
0
0
0
0
0
0
0
0
0
0
0
0
0
0
0
0
0
0
0
0
0
0
0
0
0
0
0
0
0
0
0
0
0
0
0
0
0
0
0
0
0
0
0
0
2.613588698e-16
1.703478047e-15
1.796273783e-15
8.241435865e-16
1.995702915e-15
2.382867023e-15
2.931954052e-15
3.37467509e-15
3.109536952e-15
2.724149104e-15
1.178597156e-15
2.017554184e-15
1.532873621e-15
1.315952339e-15
9.009101516e-16
3.219724879e-16
5.581208072e-16
4.393829668e-16
2.837102127e-16
1.260545255e-16
0
8.463135193e-17
9.052846829e-17
0
0
0
0
0
9.907642467e-15
0
6.759350464e-14
0
0
9.046281624e-13
0
2.02247016e-10
7.182860448e-12
2.350868152e-13
2.228532389e-12
7.449051198e-10
8.757693994e-10
1.362768754e-10
0
5.307113921e-10
0
1.347186519e-10
7.09367001e-10
6.157593909e-10
3.642612345e-10
1.184126955e-11
1.51841139e-11
2.043337066e-10
1.981789517e-10
1.113615118e-11
2.24567785e-11
1.65991498e-11
0
0
1.273428302e-11
1.069409965e-11
4.980517481e-12
0
1.061415537e-11
9.750800122e-12
2.629912015e-11
1.63284755e-11
5.177673473e-12
4.737582152e-12
1.396448806e-11
2.523916018e-11
2.250400325e-11
1.078870729e-11
1.027298343e-11
1.949339282e-11
2.16289257e-11
1.968642104e-11
1.746365456e-11
1.713852068e-11
2.10132828e-11
1.828089289e-11
1.402052999e-11
1.826625751e-11
1.867982642e-11
1.801044518e-11
1.484908916e-11
1.084502094e-11
1.499222593e-11
1.559335656e-11
1.379638725e-11
1.139485123e-11
7.387029069e-11
2.660190068e-11
1.48590353e-11
1.130025998e-11
8.812213481e-12
7.571107235e-09
1.377084579e-09
1.738834012e-10
4.2947715e-11
2.9736996e-12
0
0
0
0
6.345428701e-11
0
0
6.590775736e-12
1.007142254e-10
3.212987869e-09
0
0
8.358237857e-12
1.378900533e-10
2.739591115e-09
0
1.703435566e-13
1.131404316e-11
2.172741132e-10
3.636242113e-09
0
1.854515779e-12
3.038595749e-11
5.18532345e-10
7.673001267e-09
1.092719769e-14
5.442771658e-12
4.895215043e-11
8.892899824e-10
1.064726307e-08
6.746907624e-13
1.048877163e-11
6.229487784e-11
8.727664205e-10
7.853653972e-09
1.631762067e-12
1.179173982e-11
6.716398777e-11
7.287292216e-10
5.090179961e-09
1.406223989e-12
5.250289682e-12
7.815392224e-11
7.550116058e-10
5.224695382e-09
1.814943267e-12
8.558437421e-12
1.094742422e-10
9.713234537e-10
6.544313288e-09
4.863971439e-12
2.213310981e-11
1.693636642e-10
1.342168607e-09
8.4354972e-09
4.168750161e-12
2.758376913e-11
2.280887236e-10
1.553270034e-09
8.630689486e-09
0
3.544366015e-11
2.545940882e-10
1.496460981e-09
7.414158179e-09
8.035178172e-12
4.904011624e-11
3.030765504e-10
1.633065838e-09
7.725115803e-09
2.035202555e-11
8.813051065e-11
3.651196371e-10
1.781568234e-09
7.8572471e-09
1.274677858e-11
1.085724351e-10
5.144813266e-10
2.404576461e-09
8.164452307e-09
5.140304817e-11
1.596203098e-10
6.590356718e-10
2.705969225e-09
1.029151584e-08
6.667164564e-11
1.53001055e-10
4.92155423e-10
3.54303866e-09
1.346699425e-08
1.351393665e-10
3.193650002e-10
1.119694818e-09
4.205269351e-09
1.42513547e-08
1.919762938e-10
3.920993782e-10
1.137693445e-09
3.44645303e-09
9.855126314e-09
2.293157919e-10
3.747781104e-10
8.24765011e-10
1.941368785e-09
4.474791102e-09
2.049702385e-10
2.687893008e-10
4.406178279e-10
7.946588489e-10
1.464080111e-09
1.19862416e-10
1.401797727e-10
1.82483525e-10
2.597571815e-10
3.855806686e-10
5.00462798e-11
5.356775566e-11
6.085240186e-11
7.245742127e-11
8.841405596e-11
1.68856322e-11
1.751142967e-11
1.856486735e-11
1.945995555e-11
2.109789532e-11
5.346147922e-12
5.376901252e-12
5.385196771e-12
5.328707042e-12
5.237754755e-12
1.756251117e-12
1.7436428e-12
1.703486249e-12
1.63744895e-12
1.546735881e-12
5.745510037e-13
5.670288687e-13
5.483790401e-13
5.200816323e-13
4.820160868e-13
1.863300842e-13
1.83594354e-13
1.772013877e-13
1.679672171e-13
1.565675655e-13
5.741690054e-14
5.595631809e-14
5.392525299e-14
5.105370791e-14
4.746474034e-14
1.701125394e-14
1.769247511e-14
1.829184975e-14
1.760910586e-14
1.649257776e-14
6.756929849e-15
6.689963978e-15
6.509761551e-15
6.241239265e-15
5.892244916e-15
2.699534304e-15
2.678767652e-15
2.632332508e-15
2.565207865e-15
2.472803637e-15
1.36998657e-15
1.366320345e-15
1.357894883e-15
1.345165103e-15
1.322233749e-15
9.556040816e-16
9.587158412e-16
9.652003062e-16
9.736170615e-16
9.765551476e-16
7.924932475e-16
8.025830413e-16
8.255910064e-16
8.64641736e-16
9.169861456e-16
6.927935004e-16
7.022899757e-16
7.22708397e-16
7.527785135e-16
7.909801511e-16
4.541007513e-16
4.615915179e-16
4.772290015e-16
4.990866838e-16
5.246049833e-16
2.338266227e-16
2.370006682e-16
2.432281439e-16
2.507539601e-16
2.567888552e-16
8.647235849e-17
8.651321914e-17
8.5302018e-17
8.513327693e-17
7.49456688e-17
1.554399963e-17
6.193609123e-18
2.081900808e-18
0
0
0
0
0
0
0
5.896012549e-18
5.76375602e-18
5.525430767e-18
5.272669589e-18
5.078598442e-18
2.530209161e-18
1.350458555e-18
0
0
0
0
0
0
0
0
0
0
0
0
0
0
0
0
0
0
2.189064801e-19
1.028406336e-19
0
3.750143286e-20
3.892961604e-19
2.515072948e-19
2.387122609e-19
2.259648598e-19
1.994906023e-19
1.223417506e-19
0
0
0
0
0
0
0
0
0
0
0
0
0
0
0
0
0
0
0
0
0
0
0
0
0
0
0
0
0
0
0
0
0
0
0
0
0
0
0
0
0
0
0
0
0
0
0
0
0
0
2.945561834e-21
1.57228789e-21
1.088320436e-21
7.601632679e-22
5.742624149e-22
1.377496203e-21
1.34781114e-21
1.332996098e-21
1.325351804e-21
1.373815127e-21
6.047931502e-21
6.068022706e-21
6.102785992e-21
6.124489972e-21
6.000287687e-21
3.991028156e-21
4.053119636e-21
4.13609645e-21
4.247055985e-21
4.248140339e-21
4.07673544e-19
4.107146362e-19
4.127227985e-19
4.08840022e-19
3.886506603e-19
4.245102831e-19
4.271393229e-19
4.274447233e-19
4.200788973e-19
3.974204142e-19
4.084465919e-19
3.958605231e-19
3.490034647e-19
2.553212344e-19
1.238498248e-19
1.21958041e-20
1.193775534e-20
1.077509302e-20
8.762415472e-21
7.264032133e-21
1.206253859e-20
1.235953984e-20
1.292136051e-20
1.354343837e-20
1.412754848e-20
1.234677528e-20
1.211268349e-20
1.172033712e-20
1.143018481e-20
1.149601326e-20
0
0
0
0
0
5.2658748e-10
3.67739337e-08
1.972929017e-08
2.561776297e-08
5.161270651e-08
6.151267822e-08
3.620403789e-08
1.864280533e-08
2.109770361e-08
2.631703435e-08
3.22815357e-08
2.990696343e-08
2.372213359e-08
2.430548388e-08
2.342267485e-08
2.309190416e-08
2.81279068e-08
3.586794369e-08
3.438438042e-08
2.046464518e-08
7.996016406e-09
2.264946699e-09
5.192358771e-10
1.068467191e-10
2.255892087e-11
5.21537922e-12
1.48790077e-12
4.559933965e-13
1.490796983e-13
4.48926282e-14
1.564470504e-14
5.640553716e-15
2.399593105e-15
1.324042386e-15
9.931866611e-16
9.561685305e-16
8.216871497e-16
5.439738669e-16
2.610969832e-16
6.072650447e-17
0
0
4.835955118e-18
0
0
0
0
2.040430901e-19
0
0
0
0
0
0
0
0
0
0
0
0
1.53389475e-21
5.519597637e-21
4.356027931e-21
3.791247542e-19
3.870948772e-19
8.008111602e-20
7.443516126e-21
1.447051254e-20
1.165749597e-20
0
1.981774046e-09
8.95396454e-09
1.072038831e-09
6.635781976e-10
2.568913652e-11
2.074030957e-07
3.474168127e-06
1.995614111e-07
8.847652687e-09
6.63497902e-10
7.931192469e-08
6.406146988e-07
1.287513012e-07
1.021593397e-08
1.552331027e-09
1.163258001e-07
1.413788238e-06
1.563764845e-05
1.179710124e-06
5.989347818e-08
2.302646789e-07
2.775631828e-06
2.80404507e-05
2.822476379e-06
2.013242352e-07
2.452289508e-07
2.013837813e-06
1.57873013e-05
2.124266788e-06
2.007628341e-07
1.27604212e-07
1.039100069e-06
6.65816711e-06
1.132175185e-06
1.401679564e-07
5.604876926e-08
5.394759691e-07
3.201096859e-06
6.857087944e-06
8.697577092e-07
7.003108098e-08
5.749515492e-07
3.983877953e-06
2.184946741e-05
3.127747308e-06
8.643180324e-08
6.676447672e-07
4.482043035e-06
2.532064148e-05
4.166035622e-06
1.023567675e-07
6.572342712e-07
4.077302602e-06
2.163941115e-05
4.00634995e-06
8.830647725e-08
5.504008784e-07
3.13743653e-06
1.53382439e-05
4.589816583e-06
6.715854099e-08
4.944980257e-07
2.418043786e-06
1.130186332e-05
1.433854129e-05
6.814783027e-08
4.109236248e-07
2.054304045e-06
9.459343926e-06
1.995268664e-05
6.315674013e-08
3.527913456e-07
1.878482189e-06
8.446261273e-06
2.168383924e-05
6.07733576e-08
3.232920805e-07
1.747568196e-06
7.567626784e-06
2.116390268e-05
7.11835449e-08
3.657696205e-07
1.75553097e-06
7.393438525e-06
2.109831528e-05
8.945407905e-08
4.487179881e-07
2.053611844e-06
8.465035585e-06
2.2356255e-05
7.841783502e-08
3.282841641e-07
1.233437013e-06
4.147213304e-06
3.811046267e-06
4.148046337e-08
1.280331633e-07
3.264067134e-07
6.534520725e-07
6.46016812e-07
1.47606892e-08
3.586298193e-08
6.945702573e-08
1.014363184e-07
8.983479056e-08
3.806683057e-09
7.615867185e-09
1.220271987e-08
1.475454744e-08
1.193947618e-08
7.817302622e-10
1.301211578e-09
1.786845753e-09
1.919394891e-09
1.482883564e-09
1.415455495e-10
1.963064719e-10
2.347725363e-10
2.302444866e-10
1.727032214e-10
2.622774757e-11
3.031473791e-11
3.136990232e-11
2.796392013e-11
2.032058511e-11
5.381730693e-12
5.220735836e-12
4.639720575e-12
3.727805098e-12
2.62637199e-12
1.452209231e-12
1.294292743e-12
1.064849838e-12
8.046035582e-13
5.683387768e-13
4.351997156e-13
3.776971984e-13
3.011554389e-13
2.109339439e-13
1.580923953e-13
1.426354706e-13
1.29439247e-13
1.00435905e-13
7.216761417e-14
4.719076325e-14
4.196696394e-14
3.470969395e-14
3.158843022e-14
2.476475207e-14
1.776438089e-14
1.478233442e-14
1.302967376e-14
1.121538115e-14
9.117812172e-15
6.838166767e-15
5.397529018e-15
4.711993242e-15
4.034116024e-15
3.564032017e-15
2.969453688e-15
2.324140143e-15
2.136453823e-15
1.959146328e-15
1.735508358e-15
1.556459753e-15
1.341939444e-15
1.317523901e-15
1.291124052e-15
1.28762864e-15
1.330635816e-15
1.021337018e-15
1.080009965e-15
1.154138328e-15
1.257010958e-15
1.381139255e-15
1.013934755e-15
1.086007786e-15
1.182037198e-15
1.32577914e-15
1.528999995e-15
8.705655751e-16
9.558618681e-16
1.034971135e-15
1.149143933e-15
1.225503608e-15
5.775965241e-16
6.489995621e-16
6.053455415e-16
6.197998806e-16
6.801287877e-16
2.721705116e-16
2.616023147e-16
2.114119005e-16
2.005747574e-16
2.443533052e-16
3.889973014e-17
8.154270705e-18
0
6.398264467e-18
7.743237664e-17
0
0
0
7.923018815e-19
3.004998939e-18
0
6.860258005e-19
6.245725395e-19
1.48306472e-18
0
4.507627117e-18
2.077378482e-18
0
0
0
0
0
0
0
0
0
0
0
0
0
0
0
0
0
0
0
0
0
0
0
7.262054462e-20
0
3.814007756e-20
0
0
0
0
0
0
0
0
0
0
0
0
0
0
0
0
0
0
0
0
0
0
0
0
0
0
0
0
0
0
0
0
0
0
0
0
0
0
0
0
0
0
0
0
0
0
0
0
0
0
0
0
0
0
0
0
2.33566296e-21
0
7.265923907e-21
3.976315667e-21
2.048043752e-21
1.740510444e-21
1.998010305e-21
2.335826045e-21
2.116448269e-21
0
2.697364664e-21
4.413023593e-21
0
2.489138359e-21
9.614886366e-21
6.837144149e-20
8.374684732e-21
7.55016057e-20
3.978054e-19
4.657558742e-19
4.840640187e-19
4.448856208e-19
4.767799755e-19
4.883596329e-19
4.915421816e-19
4.943547131e-19
4.540243011e-19
4.822366088e-19
4.753091868e-19
4.123626857e-19
1.697171551e-19
2.626550743e-20
1.924371637e-20
1.639446675e-20
1.187326944e-20
7.581172365e-21
7.216120776e-21
6.979033376e-21
6.24850854e-21
6.101488678e-21
6.707257999e-21
1.388305745e-20
1.247493637e-20
1.09245845e-20
1.023564444e-20
7.088219369e-21
9.576540666e-21
0
0
0
0
0
0
0
0
0
6.740003934e-14
0
0
0
0
0
0
0
0
0
0
0
0
0
0
0
0
0
0
0
0
0
0
0
0
0
0
0
0
0
0
0
0
0
0
0
0
0
0
0
0
0
0
0
0
0
0
0
0
0
0
0
0
0
0
0
0
0
0
0
2.848246665e-12
9.416612101e-14
0
0
0
0
0
0
0
0
0
0
0
0
0
0
0
0
0
0
0
0
0
0
0
0
0
0
0
0
0
0
0
0
0
0
0
0
0
0
0
0
0
0
0
0
0
0
0
0
0
0
0
0
0
0
0
0
0
0
1.105761323e-11
0
0
0
0
0
0
0
0
0
0
0
0
0
0
0
0
0
0
0
0
0
0
0
0
0
0
0
0
0
0
0
0
0
0
0
0
0
0
0
0
0
0
0
0
0
0
0
0
0
0
0
0
0
0
0
0
0
0
0
9.588357836e-10
3.723951212e-12
3.273655354e-13
0
0
0
0
0
0
0
0
0
0
0
0
0
0
0
0
0
0
0
0
0
0
0
0
0
0
0
0
0
0
0
0
0
0
0
0
0
0
0
0
0
0
0
0
0
0
0
0
0
0
0
0
0
0
0
0
0
7.364197978e-09
6.736049814e-11
6.47780937e-13
1.626985993e-13
0
0
0
0
0
0
0
0
0
0
0
0
0
0
0
0
0
0
0
0
0
0
0
0
0
0
0
0
0
0
0
0
0
0
0
0
0
0
0
0
0
0
0
0
0
0
0
0
0
0
0
0
0
0
0
0
1.544712958e-08
3.736834602e-10
3.231803218e-12
7.104278416e-13
3.516612639e-14
0
0
0
0
0
0
0
0
0
0
0
0
0
0
0
0
0
0
0
0
0
0
0
0
0
0
0
0
0
0
0
0
0
0
0
0
0
0
0
0
0
0
0
0
0
0
0
0
0
0
0
0
0
0
0
1.484446464e-08
8.121620337e-10
1.922042983e-11
2.640533782e-13
7.583773489e-14
0
0
0
0
0
0
0
0
0
0
0
0
0
0
0
0
0
0
0
0
0
0
0
0
0
0
0
0
0
0
0
0
0
0
0
0
0
0
0
0
0
0
0
0
0
0
0
0
0
0
0
0
0
0
0
6.630956677e-08
4.361100361e-09
1.533515723e-10
3.289716788e-12
0
2.078862167e-15
0
0
0
0
0
0
0
0
0
0
0
0
0
0
0
0
0
0
0
0
0
0
0
0
0
0
0
0
0
0
0
0
0
0
0
0
0
0
0
0
0
0
0
0
0
0
0
0
0
0
0
0
0
0
2.779454453e-07
2.035673164e-08
1.022637572e-09
3.521781806e-11
8.069712556e-13
2.844115589e-13
8.610457087e-15
0
0
0
0
0
0
0
0
0
0
0
0
0
0
0
0
0
0
0
0
0
0
0
0
0
0
0
0
0
0
0
0
0
0
0
0
0
0
0
0
0
0
0
0
0
0
0
0
0
0
0
0
0
4.421793272e-07
3.271667054e-08
2.708192174e-09
1.436909307e-10
6.016112696e-12
1.44019614e-13
7.91896525e-14
0
0
0
0
0
0
0
0
0
0
0
0
0
0
0
0
0
0
0
0
0
0
0
0
0
0
0
0
0
0
0
0
0
0
0
0
0
0
0
0
0
0
0
0
0
0
0
0
0
0
0
0
0
4.967418709e-07
4.415982948e-08
5.276010435e-09
4.15270531e-10
2.583386037e-11
9.746804846e-13
2.853062678e-13
1.683398343e-14
0
0
0
0
0
0
0
0
0
0
0
0
0
0
0
0
0
0
0
0
0
0
0
0
0
0
0
0
0
0
0
0
0
0
0
0
0
0
0
0
0
0
0
0
0
0
0
0
0
0
0
0
6.349521643e-07
6.629756125e-08
8.067614202e-09
1.123811266e-09
8.885921827e-11
4.440405517e-12
1.01724972e-13
5.496979974e-14
0
0
0
0
0
0
0
0
0
0
0
0
0
0
0
0
0
0
0
0
0
0
0
0
0
0
0
0
0
0
0
0
0
0
0
0
0
0
0
0
0
0
0
0
0
0
0
0
0
0
0
0
2.060425307e-06
2.334920509e-07
2.187146192e-08
3.932353622e-09
3.226201857e-10
1.806737803e-11
5.302520213e-13
1.25978239e-13
4.303717326e-15
0
0
0
0
0
0
0
0
0
0
0
0
0
0
0
0
0
0
0
0
0
0
0
0
0
0
0
0
0
0
0
0
0
0
0
0
0
0
0
0
0
0
0
0
0
0
0
0
0
0
0
3.222179153e-06
4.180526039e-07
4.519985633e-08
8.795516103e-09
8.470566957e-10
5.553619431e-11
2.053069498e-12
3.682856359e-13
1.681779662e-14
0
0
0
0
0
0
0
0
0
0
0
0
0
0
0
0
0
0
0
0
0
0
0
0
0
0
0
0
0
0
0
0
0
0
0
0
0
0
0
0
0
0
0
0
0
0
0
0
0
0
0
3.902357993e-06
5.761646988e-07
7.228478461e-08
1.384499382e-08
1.574517292e-09
1.163058998e-10
5.266424654e-12
8.685270558e-13
5.112937603e-14
0
0
0
0
0
0
0
0
0
0
0
0
0
0
0
0
0
0
0
0
0
0
0
0
0
0
0
0
0
0
0
0
0
0
0
0
0
0
0
0
0
0
0
0
0
0
0
0
0
0
0
4.193228639e-06
6.897612034e-07
9.663264277e-08
2.005098608e-08
2.130192247e-09
1.592231959e-10
7.99754819e-12
5.04922221e-13
5.766337413e-14
5.277034713e-17
0
0
0
0
0
0
0
0
0
0
0
0
0
0
0
0
0
0
0
0
0
0
0
0
0
0
0
0
0
0
0
0
0
0
0
0
0
0
0
0
0
0
0
0
0
0
0
0
0
0
4.413351657e-06
7.66550227e-07
1.120834576e-07
3.555361598e-08
2.687159415e-09
1.551747358e-10
7.43917424e-12
3.163019838e-13
3.305995631e-14
0
0
0
0
0
0
0
0
0
0
0
0
0
0
0
0
0
0
0
0
0
0
0
0
0
0
0
0
0
0
0
0
0
0
0
0
0
0
0
0
0
0
0
0
0
0
0
0
0
0
0
4.549186689e-06
7.448728962e-07
9.873736549e-08
1.130066655e-08
9.129413187e-10
5.852057785e-11
3.123778375e-12
3.428997369e-14
1.077713155e-14
0
0
0
0
0
0
0
0
0
0
0
0
0
0
0
0
0
0
0
0
0
0
0
0
0
0
0
0
0
0
0
0
0
0
0
0
0
0
0
0
0
0
0
0
0
0
0
0
0
0
0
1.055341893e-06
2.046987207e-07
4.095575139e-08
4.35321832e-09
3.867920262e-10
2.641991303e-11
1.466261682e-12
2.207696459e-13
1.6883484e-14
6.972384313e-15
0
0
0
0
0
0
0
0
0
0
0
0
0
0
0
0
0
0
0
0
0
0
0
0
0
0
0
0
0
0
0
0
0
0
0
0
0
0
0
0
0
0
0
0
0
0
0
0
0
0
3.073126178e-07
6.646255453e-08
1.040698666e-08
1.305688354e-09
1.257932139e-10
9.564878936e-12
7.79700591e-13
1.075831372e-13
1.926641796e-14
7.564826279e-15
1.060763321e-15
0
0
0
0
0
0
0
0
0
0
0
0
0
0
0
0
0
0
0
0
0
0
0
0
0
0
0
0
0
0
0
0
0
0
0
0
0
0
0
0
0
0
0
0
0
0
0
0
0
4.323259435e-08
1.123526286e-08
2.090415812e-09
2.928333791e-10
3.133560197e-11
2.731995281e-12
6.758742528e-14
2.349721299e-14
1.046665744e-14
5.280596137e-15
8.135681327e-15
1.160166602e-16
0
0
0
0
0
0
0
0
0
0
0
0
0
0
0
0
0
0
0
0
0
0
0
0
0
0
0
0
0
0
0
0
0
0
0
0
0
0
0
0
0
0
0
0
0
0
0
0
5.799765399e-09
1.696906655e-09
3.521407298e-10
5.429344395e-11
6.58898246e-12
6.801744596e-13
6.178125315e-14
7.172693408e-15
0
6.719268279e-16
0
7.455486187e-15
9.169230751e-16
0
0
0
0
0
0
0
0
0
0
0
0
0
0
0
0
0
0
0
0
0
0
0
0
0
0
0
0
0
0
0
0
0
0
0
0
0
0
0
0
0
0
0
0
0
0
0
7.385702051e-10
2.322692699e-10
5.23527438e-11
9.055551713e-12
1.310562486e-12
1.772469811e-13
3.423663268e-14
4.490665426e-15
1.139576254e-15
8.326109896e-16
0
0
5.129869223e-15
0
0
0
0
0
0
0
0
0
0
0
0
0
0
0
0
0
0
0
0
0
0
0
0
0
0
0
0
0
0
0
0
0
0
0
0
0
0
0
0
0
0
0
0
0
0
0
8.868357296e-11
2.998084532e-11
7.524139287e-12
1.544594593e-12
2.945160425e-13
5.628018685e-14
1.155461818e-14
1.747239918e-15
1.549260107e-15
1.654151604e-15
1.033294096e-15
3.173150929e-17
0
3.686929309e-15
0
0
0
0
0
0
0
0
0
0
0
0
0
0
0
0
0
0
0
0
0
0
0
0
0
0
0
0
0
0
0
0
0
0
0
0
0
0
0
0
0
0
0
0
0
0
1.079471368e-11
3.997915554e-12
1.089248117e-12
2.946456253e-13
7.379491055e-14
2.035299251e-14
7.254766534e-15
0
1.355411123e-15
1.107516281e-15
0
1.704234427e-15
1.047648575e-16
0
3.813850899e-15
0
0
0
0
0
0
0
0
0
0
0
0
0
0
0
0
0
0
0
0
0
0
0
0
0
0
0
0
0
0
0
0
0
0
0
0
0
0
0
0
0
0
0
0
0
1.467462799e-12
6.375608353e-13
2.450440371e-13
9.178092777e-14
3.116759148e-14
1.145446998e-14
4.333708342e-15
1.358696456e-15
0
8.875979211e-16
2.932599003e-16
0
2.09018934e-15
1.140999388e-15
1.839579075e-15
5.023645495e-15
0
0
0
0
0
0
0
0
0
0
0
0
0
0
0
0
0
0
0
0
0
0
0
0
0
0
0
0
0
0
0
0
0
0
0
0
0
0
0
0
0
0
0
0
3.316174973e-13
1.668964489e-13
7.931307089e-14
2.824550432e-14
1.309560353e-14
4.25593648e-15
2.250437744e-15
2.357992567e-16
0
6.403676342e-16
1.004478513e-15
5.0212066e-16
0
0
4.724508635e-16
4.531005608e-15
7.536859929e-15
0
0
0
0
0
0
0
0
0
0
0
0
0
0
0
0
0
0
0
0
0
0
0
0
0
0
0
0
0
0
0
0
0
0
0
0
0
0
0
0
0
0
0
1.030986671e-13
5.564723821e-14
2.210588576e-14
1.249986637e-14
5.422606561e-15
2.968802949e-15
1.729123203e-15
6.246111024e-16
1.221356693e-16
9.378952714e-16
9.156494895e-16
6.86954537e-16
0
3.093279111e-16
0
3.814721248e-16
4.173605718e-15
6.352460468e-15
0
0
0
0
0
0
0
0
0
0
0
0
0
0
0
0
0
0
0
0
0
0
0
0
0
0
0
0
0
0
0
0
0
0
0
0
0
0
0
0
0
0
3.301765845e-14
1.791326796e-14
1.068491168e-14
5.374041722e-15
1.43429563e-15
1.57182279e-15
1.34289966e-15
1.045801449e-15
3.856778904e-16
8.933922104e-16
1.09028787e-15
9.024001511e-16
1.510888571e-16
0
9.298476792e-16
9.463136326e-17
1.837318009e-15
5.66391538e-15
0
0
0
0
0
0
0
0
0
0
0
0
0
0
0
0
0
0
0
0
0
0
0
0
0
0
0
0
0
0
0
0
0
0
0
0
0
0
0
0
0
0
1.2485165e-14
7.954472701e-15
4.360857034e-15
2.821594449e-15
1.911372448e-15
1.495761411e-15
1.125498518e-15
9.676898621e-16
9.429791708e-16
8.51176521e-16
8.642780611e-16
7.928073031e-16
1.241980214e-15
9.100831339e-16
5.126809331e-16
0
8.487002818e-17
2.974918288e-15
6.455905516e-15
0
0
0
0
0
0
0
0
0
0
0
0
0
0
0
0
0
0
0
0
0
0
0
0
0
0
0
0
0
0
0
0
0
0
0
0
0
0
0
0
0
5.030617667e-15
3.341767115e-15
2.123732825e-15
1.644511356e-15
1.29588286e-15
1.12200129e-15
9.652632804e-16
8.900525291e-16
9.289974606e-16
9.300587396e-16
8.829627514e-16
9.967285042e-16
7.386761894e-16
3.997099049e-16
0
2.261928311e-16
0
0
3.792882126e-15
7.29156655e-15
0
0
0
0
0
0
0
0
0
0
0
0
0
0
0
0
0
0
0
0
0
0
0
0
0
0
0
0
0
0
0
0
0
0
0
0
0
0
0
0
2.313593733e-15
1.647507303e-15
1.493342733e-15
1.27773556e-15
1.07013195e-15
1.136327718e-15
1.054280208e-15
1.133692131e-15
1.137220031e-15
1.122598976e-15
9.345397197e-16
8.974636007e-16
6.847180377e-16
7.860734641e-16
0
1.268802415e-15
2.858092694e-15
7.668056611e-17
5.676130246e-15
7.41201248e-15
0
0
0
0
0
0
0
0
0
0
0
0
0
0
0
0
0
0
0
0
0
0
0
0
0
0
0
0
0
0
0
0
0
0
0
0
0
0
0
0
1.503675025e-15
1.339795536e-15
1.230009102e-15
1.21020175e-15
1.589681771e-15
1.472467102e-15
1.701841704e-15
1.342354077e-15
1.148058594e-15
1.004847577e-15
7.040897282e-16
5.602460675e-16
2.394871864e-16
1.867703156e-16
1.217937747e-16
0
6.136281222e-16
0
0
3.56694543e-15
6.961305353e-15
0
0
0
0
0
0
0
0
0
0
0
0
0
0
0
0
0
0
0
0
0
0
0
0
0
0
0
0
0
0
0
0
0
0
0
0
0
0
0
1.354192364e-15
1.416762377e-15
1.628529273e-15
1.495153641e-15
1.778544301e-15
1.448227036e-15
1.707580928e-15
1.604002444e-15
1.151142739e-15
8.683081337e-16
5.468589429e-16
4.396448528e-16
4.585566172e-16
4.976126311e-16
9.99086921e-16
4.961801514e-16
3.343758629e-15
6.062016529e-15
5.271866008e-15
1.084562524e-14
1.293650771e-14
1.034280026e-14
0
0
0
0
0
0
0
0
0
0
0
0
0
0
0
0
0
0
0
0
0
0
0
0
0
0
0
0
0
0
0
0
0
0
0
0
0
0
1.606085528e-15
1.972719152e-15
1.974053243e-15
1.666553613e-15
1.92738181e-15
1.996556762e-15
1.602599884e-15
1.546233787e-15
1.039754735e-15
6.404322188e-16
4.2243289e-16
3.400700026e-16
3.154564983e-16
1.97684449e-16
3.97496735e-16
8.565148959e-16
9.734825971e-16
1.759999661e-15
0
0
4.081268432e-15
8.261778408e-15
0
0
0
0
0
0
0
0
0
0
0
0
0
0
0
0
0
0
0
0
0
0
0
0
0
0
0
0
0
0
0
0
0
0
0
0
0
0
1.826944864e-15
2.107347155e-15
2.001752884e-15
1.411420187e-15
1.156547378e-15
1.146193536e-15
1.149736411e-15
1.220058581e-15
8.292233517e-16
4.822004925e-16
3.1750884e-16
1.974866567e-16
2.791936603e-16
1.458543213e-16
3.602962365e-16
1.074908442e-15
5.856998305e-16
3.082129982e-15
4.84542002e-15
9.855717489e-16
1.401984248e-15
7.870792225e-15
7.924219317e-15
0
0
0
0
0
0
0
0
0
0
0
0
0
0
0
0
0
0
0
0
0
0
0
0
0
0
0
0
0
0
0
0
0
0
0
0
0
1.466250772e-15
1.567429801e-15
1.090417847e-15
7.223935217e-16
5.204368376e-16
6.028294103e-16
6.875756253e-16
8.750606973e-16
5.671443381e-16
2.454582906e-16
1.749943133e-16
1.101345442e-16
2.621978291e-16
1.790988891e-16
2.348105002e-16
5.38138946e-16
0
1.363536329e-15
2.021289211e-15
0
0
4.151812632e-15
7.617873766e-15
0
0
0
0
0
0
0
0
0
0
0
0
0
0
0
0
0
0
0
0
0
0
0
0
0
0
0
0
0
0
0
0
0
0
0
0
0
8.687309741e-16
9.857956354e-16
5.150511957e-16
2.089928044e-16
5.357737467e-17
1.805640959e-16
3.067900495e-16
5.413699456e-16
2.899069674e-16
4.607891755e-17
4.317399726e-17
3.148819527e-19
9.239594376e-17
2.4060289e-17
7.759914215e-17
3.070554453e-16
8.824393744e-16
6.30429242e-16
2.594790704e-15
3.937732487e-15
0
0
6.412826707e-15
7.40313779e-15
0
0
0
0
0
0
0
0
0
0
0
0
0
0
0
0
0
0
0
0
0
0
0
0
0
0
0
0
0
0
0
0
0
0
0
0
3.9102489e-16
2.358841191e-16
9.876577291e-17
5.683089628e-18
1.403104766e-17
9.204921586e-18
4.184118162e-18
5.70878356e-17
8.826736562e-18
0
0
0
3.751759161e-17
8.992188261e-17
5.511902953e-17
3.062179885e-16
9.54391389e-16
3.265293598e-16
1.442746287e-15
2.271690909e-15
2.615601002e-17
0
6.585458317e-15
1.194156744e-14
1.133103548e-14
0
0
0
0
0
0
0
0
0
0
0
0
0
0
0
0
0
0
0
0
0
0
0
0
0
0
0
0
0
0
0
0
0
0
0
2.511840557e-17
0
0
0
3.64729502e-18
0
0
7.848391612e-18
0
0
0
0
3.163364808e-18
7.914163111e-17
0
7.849200426e-17
6.455311534e-16
0
1.250755402e-15
3.532189539e-15
5.249255779e-15
1.68086954e-15
0
9.169569381e-15
9.711551052e-15
0
0
0
0
0
0
0
0
0
0
0
0
0
0
0
0
0
0
0
0
0
0
0
0
0
0
0
0
0
0
0
0
0
0
0
0
0
0
1.863423462e-17
9.616045157e-18
2.289554936e-18
0
5.428606124e-18
0
0
0
0
0
7.584103761e-17
0
8.901816629e-18
3.405989205e-16
1.03168528e-15
7.041700786e-16
1.802558023e-15
2.668676477e-15
0
0
9.565767509e-15
1.324820972e-14
9.844325085e-15
0
0
0
0
0
0
0
0
0
0
0
0
0
0
0
0
0
0
0
0
0
0
0
0
0
0
0
0
0
0
0
0
0
0
0
0
0
0
0
0
0
3.165751207e-18
0
0
0
0
2.430442163e-18
7.581873594e-17
0
4.562129296e-18
2.869348011e-16
9.96558702e-16
4.771333354e-16
1.724322919e-15
3.261829382e-15
3.107332432e-15
2.988178662e-15
1.523126715e-15
8.144050851e-15
9.266145183e-15
0
0
0
0
0
0
0
0
0
0
0
0
0
0
0
0
0
0
0
0
0
0
0
0
0
0
0
0
0
0
0
0
0
0
0
0
0
0
0
0
0
0
0
0
0
0
2.133429373e-18
6.637591859e-17
0
2.545656281e-18
6.817964819e-17
6.309720037e-16
1.368721197e-17
1.67087266e-16
1.55758744e-15
2.528524995e-15
0
0
7.256411413e-15
1.245817164e-14
1.075928942e-14
0
0
0
0
0
0
0
0
0
0
0
0
0
0
0
0
0
0
0
0
0
0
0
0
0
0
0
0
0
0
0
0
0
0
0
2.132302221e-19
0
0
0
1.387624077e-18
0
0
0
0
0
2.669721581e-18
3.678728236e-17
0
0
7.495451826e-18
3.300949517e-16
1.000082527e-15
5.374931504e-16
1.307393699e-15
1.857365058e-15
0
0
6.00712147e-16
8.653548347e-15
9.346192679e-15
0
0
0
0
0
0
0
0
0
0
0
0
0
0
0
0
0
0
0
0
0
0
0
0
0
0
0
0
0
0
0
0
0
1.96138949e-19
0
0
0
0
0
5.786605923e-18
0
0
0
0
0
2.527019836e-19
1.715875439e-17
0
0
7.712307194e-18
3.428370015e-16
1.127501681e-15
6.396436455e-16
1.36308927e-15
2.697008529e-15
5.257576443e-15
6.388366356e-16
0
7.416410753e-15
1.25407931e-14
1.091063545e-14
0
0
0
0
0
0
0
0
0
0
0
0
0
0
0
0
0
0
0
0
0
0
0
0
0
0
0
0
0
0
0
0
0
0
0
0
0
0
0
0
0
0
0
0
0
1.244081794e-17
7.722434548e-17
8.420900174e-18
0
6.641264365e-17
5.958122325e-16
4.742722497e-18
9.034813983e-17
1.3077231e-15
2.123051925e-15
0
0
5.83162636e-15
1.098163009e-14
1.012707651e-14
0
0
0
0
0
0
0
0
0
0
0
0
0
0
0
0
0
0
0
0
0
0
0
0
0
0
0
0
0
0
0
0
0
0
0
0
0
1.025189884e-18
0
0
0
0
0
0
9.626535636e-19
1.659700825e-17
8.396893223e-17
9.261187267e-18
0
0
7.744424346e-18
0
4.649520139e-17
1.201298757e-15
2.083219466e-15
6.871899814e-16
0
0
7.629727431e-15
1.25564274e-14
1.069883636e-14
0
0
0
0
0
0
0
0
0
0
0
0
0
0
0
0
0
0
0
0
0
0
0
0
0
0
0
0
0
0
0
0
0
0
0
0
0
0
0
0
0
0
0
1.918443934e-18
1.98295304e-17
8.769596093e-17
1.349765956e-17
0
0
0
6.580205194e-19
7.405309478e-17
6.426078492e-16
1.327096814e-15
1.812892538e-15
0
0
6.370067035e-15
1.134508679e-14
1.01175724e-14
0
0
0
0
0
0
0
0
0
0
0
0
0
0
0
0
0
0
0
0
0
0
0
0
0
0
0
0
0
0
0
0
0
0
0
0
0
0
0
0
0
0
0
2.091453892e-18
2.161776679e-17
8.983745827e-17
1.657190722e-17
3.48440437e-19
0
1.035970269e-16
3.219337386e-16
1.261653367e-16
1.645231613e-16
1.349332419e-15
2.394821125e-15
1.062336858e-15
0
0
6.61884374e-15
9.24848535e-15
3.329067454e-15
0
0
0
0
0
0
0
0
0
0
0
0
0
0
0
0
0
0
0
0
0
0
0
0
0
0
0
0
0
0
0
0
0
0
0
0
0
0
0
3.556473393e-19
1.825398131e-19
0
1.168848419e-18
1.283938801e-17
7.113105502e-17
1.107054011e-17
0
0
4.922369779e-17
6.200158793e-16
3.837402894e-17
6.520549453e-17
1.292429557e-15
2.658029592e-15
4.49777567e-15
0
0
6.291943396e-15
1.085600379e-14
9.062258239e-15
0
0
0
0
0
0
0
0
0
0
0
0
0
0
0
0
0
0
0
0
0
0
0
0
0
0
0
0
0
0
0
0
0
0
0
0
0
0
1.950715219e-20
4.416858658e-19
4.381994644e-19
0
8.253979242e-19
1.041234971e-17
6.75157083e-17
1.00190732e-17
0
0
0
0
0
0
6.034126098e-16
1.333919406e-15
1.937441056e-15
0
0
6.94868553e-16
8.829582026e-15
8.938740886e-15
0
0
0
0
0
0
0
0
0
0
0
0
0
0
0
0
0
0
0
0
0
0
0
0
0
0
0
0
0
0
0
0
0
0
0
0
0
0
1.923063366e-20
4.476687197e-19
4.398050006e-19
0
0
3.797839115e-18
3.829140069e-17
5.121210046e-18
0
0
0
0
0
0
8.003509388e-17
1.314195897e-15
2.376801309e-15
1.039523647e-15
0
0
9.178626915e-15
1.19591221e-14
9.039682212e-15
0
0
0
0
0
0
0
0
0
0
0
0
0
0
0
0
0
0
0
0
0
0
0
0
0
0
0
0
0
0
0
0
0
0
0
0
1.695562326e-20
4.380020856e-19
4.973453902e-19
4.374132405e-19
0
0
3.526840937e-18
3.700353222e-17
4.92599887e-18
0
0
0
0
0
0
4.770003165e-17
1.263945539e-15
2.570272982e-15
4.661757706e-15
0
0
8.597543633e-15
1.19385832e-14
9.906351802e-15
0
0
0
0
0
0
0
0
0
0
0
0
0
0
0
0
0
0
0
0
0
0
0
0
0
0
0
0
0
0
0
0
0
0
0
0
2.467178523e-20
4.456607344e-19
4.43342689e-19
0
0
0
3.530257715e-18
3.692437434e-17
4.941575668e-18
0
0
0
0
0
0
2.899112762e-17
1.03764361e-15
1.615362262e-15
2.671567986e-15
1.864256695e-15
0
0
8.132469011e-15
1.271242668e-14
1.069212774e-14
0
0
0
0
0
0
0
0
0
0
0
0
0
0
0
0
0
0
0
0
0
0
0
0
0
0
0
0
0
0
0
0
0
1.25745434e-21
2.545257474e-20
4.376367694e-19
4.960286423e-19
4.350206395e-19
0
0
0
3.49686589e-18
3.666636847e-17
4.886163211e-18
0
0
0
0
3.359343558e-17
0
0
2.778524748e-16
1.295068919e-15
2.19796271e-15
8.979031421e-16
0
0
6.824385744e-15
1.180794378e-14
1.030010775e-14
0
0
0
0
0
0
0
0
0
0
0
0
0
0
0
0
0
0
0
0
0
0
0
0
0
0
0
0
0
0
0
0
0
5.055713526e-21
2.818891976e-20
4.438276743e-19
4.506480597e-19
4.745829538e-20
0
0
0
0
0
0
0
0
0
0
0
0
0
3.065866147e-17
1.055042349e-15
1.720782206e-15
2.988055513e-15
0
0
4.090956058e-15
9.36673905e-15
9.060715698e-15
0
0
0
0
0
0
0
0
0
0
0
0
0
0
0
0
0
0
0
0
0
0
0
0
0
0
0
0
0
0
0
1.585891947e-21
4.237412491e-21
2.645809784e-20
4.360911413e-19
4.96105558e-19
4.524318605e-19
3.809629904e-20
0
0
0
0
0
0
0
0
0
0
0
0
0
2.19235452e-17
9.84154894e-16
1.38774786e-15
2.200301319e-15
1.826222775e-15
0
0
6.959784812e-15
1.113355008e-14
8.807283894e-15
0
0
0
0
0
0
0
0
0
0
0
0
0
0
0
0
0
0
0
0
0
0
0
0
0
0
0
0
7.450366015e-22
2.590537161e-21
4.264428413e-21
2.834139673e-20
4.350518656e-19
4.952081525e-19
4.528853419e-19
5.458580442e-20
0
0
0
0
0
0
0
0
0
0
0
0
0
0
0
6.088069452e-16
1.375725992e-15
2.326973077e-15
1.9669208e-15
0
0
6.539945915e-15
1.131463584e-14
9.751132317e-15
0
0
0
0
0
0
0
0
0
0
0
0
0
0
0
0
0
0
0
0
0
0
0
0
0
0
0
1.602408789e-21
2.136167477e-21
2.947285674e-21
5.982349621e-21
5.191837479e-20
4.476118155e-19
4.686778972e-19
2.995481564e-19
9.289462936e-21
0
0
0
0
0
0
0
0
0
0
0
0
0
0
0
2.547636437e-16
1.25415985e-15
2.30884463e-15
3.877834702e-15
0
0
4.150131994e-15
9.726153718e-15
1.137927302e-14
8.379813572e-15
0
0
0
0
0
0
0
0
0
0
0
0
0
0
0
0
0
0
0
0
0
0
0
0
0
0
3.144516582e-23
4.394292968e-21
2.917563095e-20
4.303653376e-19
4.926909893e-19
5.027824611e-19
4.503924936e-19
5.944530664e-20
0
0
0
0
0
7.518368377e-19
1.248737677e-18
0
0
0
0
0
0
0
0
0
2.141293119e-17
9.560612172e-16
1.172354157e-15
1.278298296e-15
0
0
0
7.00491676e-15
1.146589001e-14
9.630210811e-15
0
0
0
0
0
0
0
0
0
0
0
0
0
0
0
0
0
0
0
0
0
0
0
0
0
0
6.709861198e-21
5.861449128e-20
4.392525744e-19
5.03667304e-19
5.061274294e-19
4.521705156e-19
6.683953442e-20
0
0
0
0
0
1.430615636e-19
1.025209504e-17
1.31403204e-19
0
0
0
0
0
0
0
0
0
1.980486034e-17
9.710917275e-16
1.316158539e-15
2.058526177e-15
1.759579454e-15
0
0
6.62494559e-15
1.139273395e-14
9.809787565e-15
0
0
0
0
0
0
0
0
0
0
0
0
0
0
0
0
0
0
0
0
0
0
0
0
0
0
4.233809323e-19
4.914420495e-19
5.091456352e-19
5.052105479e-19
4.503692796e-19
6.994971398e-20
9.077913162e-21
0
0
0
0
0
0
0
0
0
0
0
0
0
0
0
0
0
2.035323707e-17
9.622286252e-16
1.305354855e-15
2.102931969e-15
2.254216122e-15
0
0
5.81605646e-15
1.144067635e-14
1.295366359e-14
1.02899805e-14
0
0
0
0
0
0
0
0
0
0
0
0
0
0
0
0
0
0
0
0
0
0
0
0
0
5.050875838e-19
5.050718592e-19
4.53877896e-19
1.594664136e-19
2.67605561e-20
5.065555427e-21
0
0
0
0
0
0
0
0
0
0
0
0
0
0
0
0
0
0
0