/*--------------------------------*- C++ -*----------------------------------*\
  =========                 |
  \\      /  F ield         | OpenFOAM: The Open Source CFD Toolbox
   \\    /   O peration     | Website:  https://openfoam.org
    \\  /    A nd           | Version:  10
     \\/     M anipulation  |
\*---------------------------------------------------------------------------*/
FoamFile
{
    format      ascii;
    class       volScalarField;
    location    "0.02499901733";
    object      HCO;
}
// * * * * * * * * * * * * * * * * * * * * * * * * * * * * * * * * * * * * * //

dimensions      [0 0 0 0 0 0 0];

internalField   nonuniform List<scalar> 
5170
(
0
0
0
0
0
0
0
0
0
0
0
0
0
0
0
0
0
0
0
0
0
0
0
0
0
0
0
0
0
0
0
0
0
0
0
0
0
0
0
0
0
0
0
0
0
0
0
0
0
0
0
0
0
0
0
0
0
0
0
0
0
0
0
0
0
0
0
0
0
0
0
0
0
0
0
0
0
0
0
0
0
0
0
0
0
0
0
0
0
0
0
0
0
0
0
0
0
0
0
2.79131738e-13
1.876456439e-10
1.8612065e-10
1.857781204e-10
1.867615823e-10
1.901591053e-10
7.768847238e-11
8.889169322e-11
8.566374442e-11
8.628008753e-11
7.085444043e-11
3.108175799e-11
4.116460682e-11
3.93323286e-11
3.746056853e-11
2.666037829e-11
1.540301068e-11
2.123544018e-11
2.043731256e-11
1.796720894e-11
1.180498233e-11
8.396322769e-12
1.179701269e-11
1.170299041e-11
1.038453978e-11
9.593307005e-12
4.468799247e-12
8.20978058e-12
7.772647801e-12
3.287796154e-12
2.069158501e-12
8.529421893e-13
1.294251143e-12
4.604518678e-12
1.274425577e-11
0
5.383700956e-10
2.150534665e-11
0
0
2.719810412e-09
2.920576378e-09
1.426726474e-10
0
1.663189172e-09
7.362823278e-11
4.66502004e-10
2.148419415e-09
1.893862573e-09
8.701665774e-10
2.884310911e-11
5.727693815e-11
5.480806371e-10
5.140082321e-10
0
3.806285809e-11
3.559253913e-11
0
0
3.18494091e-11
1.39818452e-11
1.266007733e-11
1.045687507e-11
3.362075198e-11
1.326788498e-11
8.441719355e-11
6.220792856e-11
1.335146879e-11
4.596634988e-12
3.445791993e-11
9.076087572e-11
9.55443632e-11
3.843074863e-11
3.025677706e-11
6.792461988e-11
8.469904967e-11
9.09974229e-11
7.225416286e-11
6.686894224e-11
8.485245043e-11
7.926573372e-11
7.156034191e-11
8.221703701e-11
8.13507393e-11
8.112721804e-11
7.339899882e-11
5.892422411e-11
7.289237817e-11
7.445447233e-11
6.992901116e-11
6.65623303e-11
9.762350666e-11
8.128933593e-11
6.759029053e-11
6.2013254e-11
5.909200169e-11
4.546936517e-09
2.519438462e-09
3.673693656e-10
1.220395318e-10
7.172866434e-12
0
0
7.586619556e-13
1.794164512e-11
5.245607835e-10
0
0
5.38298689e-12
6.934503337e-11
1.829147828e-09
0
2.021930567e-13
9.126653432e-12
1.047796016e-10
1.811558156e-09
0
6.226131532e-13
1.119464479e-11
1.385931556e-10
1.820056741e-09
0
1.032154904e-12
1.053938959e-11
1.820808012e-10
1.988044441e-09
0
2.013343457e-12
1.689024155e-11
2.309991733e-10
2.136645301e-09
1.048289029e-13
3.763267181e-12
2.394218449e-11
2.548270921e-10
1.985298983e-09
3.880136256e-13
4.382921537e-12
3.169225808e-11
2.682057804e-10
1.786320883e-09
7.1821262e-14
1.052613629e-12
4.057536561e-11
2.925128094e-10
1.781348169e-09
5.705721353e-13
5.357893178e-12
5.089799879e-11
3.21879833e-10
1.819617512e-09
2.255164561e-12
1.136209253e-11
6.391190918e-11
3.628642238e-10
1.917944065e-09
3.338884595e-12
1.495560716e-11
7.734944652e-11
3.946222899e-10
1.904250548e-09
3.807006826e-12
2.007658514e-11
9.157817264e-11
4.311546494e-10
1.954480299e-09
8.955933469e-12
2.737047649e-11
1.12306924e-10
4.982282394e-10
2.141699635e-09
1.615437101e-11
4.269283898e-11
1.368146116e-10
5.574302603e-10
2.210669984e-09
1.792782803e-11
5.24666557e-11
1.8156397e-10
7.170547346e-10
2.283125659e-09
3.533735819e-11
7.490609958e-11
2.366877371e-10
8.278343607e-10
2.782448069e-09
5.51208185e-11
1.003830931e-10
2.649997744e-10
1.181233076e-09
3.923433138e-09
1.127143907e-10
2.121461153e-10
5.982797201e-10
1.900363087e-09
5.866228553e-09
2.167261146e-10
3.627277903e-10
8.534075349e-10
2.216326604e-09
5.740411486e-09
3.888840006e-10
5.396898774e-10
9.62975136e-10
1.897423123e-09
3.821672907e-09
5.175981972e-10
6.118394789e-10
8.455566189e-10
1.276684053e-09
2.002429629e-09
4.203172941e-10
4.566020058e-10
5.364124849e-10
6.6464749e-10
8.471280784e-10
2.186906292e-10
2.263347669e-10
2.41985168e-10
2.63477752e-10
2.887053479e-10
8.542214662e-11
8.658641638e-11
8.798636778e-11
8.892971946e-11
9.036333003e-11
2.950081057e-11
2.945668022e-11
2.918251614e-11
2.848715857e-11
2.748874111e-11
1.055070399e-11
1.046340768e-11
1.022413591e-11
9.827014218e-12
9.286054875e-12
3.82818326e-12
3.782264411e-12
3.669372263e-12
3.49494203e-12
3.271844466e-12
1.383350697e-12
1.368477036e-12
1.343674837e-12
1.283659659e-12
1.207819114e-12
5.052491292e-13
4.910446219e-13
4.769300026e-13
4.629631674e-13
4.35488226e-13
1.81568107e-13
1.826800912e-13
1.86598707e-13
1.812185568e-13
1.721446936e-13
8.118223949e-14
8.052668716e-14
7.898410805e-14
7.644360086e-14
7.306744765e-14
3.959411718e-14
3.935454002e-14
3.882071843e-14
3.802654976e-14
3.704833283e-14
2.484325757e-14
2.480699941e-14
2.471880344e-14
2.456740917e-14
2.427389544e-14
2.093684342e-14
2.100607296e-14
2.115644791e-14
2.137626312e-14
2.165076205e-14
2.113897497e-14
2.130005953e-14
2.166220888e-14
2.222750863e-14
2.295197419e-14
2.220967389e-14
2.242228113e-14
2.289060977e-14
2.359588913e-14
2.452381743e-14
2.092473186e-14
2.117925157e-14
2.173483928e-14
2.256635502e-14
2.365940283e-14
1.74121025e-14
1.766519191e-14
1.821358929e-14
1.902604756e-14
2.006767733e-14
1.145613245e-14
1.166837868e-14
1.20766976e-14
1.263520444e-14
1.334948065e-14
5.039159883e-15
5.111133257e-15
5.242647923e-15
5.420451794e-15
5.697080979e-15
2.434103323e-16
3.056877935e-16
4.467406943e-16
6.690419412e-16
9.856161439e-16
1.023678291e-15
1.038791195e-15
1.073425125e-15
1.13061803e-15
1.210811303e-15
3.479660825e-16
3.099918679e-16
2.295300006e-16
9.348519389e-17
4.181347053e-17
0
0
0
0
0
0
0
0
0
0
0
0
0
0
0
1.002921971e-15
9.54398829e-16
8.571250893e-16
7.250094382e-16
5.737544899e-16
2.307554668e-16
2.276705405e-16
2.214381388e-16
2.081238856e-16
1.827567257e-16
0
0
0
0
0
0
0
0
0
0
0
0
0
0
0
3.843778536e-16
3.715379892e-16
3.504047775e-16
3.268383794e-16
2.993419822e-16
1.539561733e-15
1.564065079e-15
1.625429837e-15
1.648918956e-15
1.626155846e-15
2.734519217e-15
2.70074845e-15
2.62847635e-15
2.517099068e-15
2.362404503e-15
3.301615971e-15
3.240618899e-15
3.112575368e-15
2.929467602e-15
2.699567373e-15
4.111592825e-15
4.03997338e-15
3.886399203e-15
3.658294459e-15
3.359143972e-15
5.260964617e-15
5.175408708e-15
4.993955819e-15
4.729106855e-15
4.385336396e-15
7.508238657e-15
7.390557864e-15
7.13933767e-15
6.767447303e-15
6.274000352e-15
1.051458136e-14
1.036708378e-14
1.005517388e-14
9.600813961e-15
9.019183975e-15
1.451500129e-14
1.436633278e-14
1.405272133e-14
1.359723808e-14
1.301632413e-14
1.756306936e-14
1.744013856e-14
1.718337552e-14
1.682232747e-14
1.6399047e-14
1.992920084e-14
1.983694218e-14
1.965477751e-14
1.941714139e-14
1.917197722e-14
2.033738619e-14
2.01830349e-14
1.994849721e-14
1.959954506e-14
1.905819987e-14
2.573702081e-14
2.548291203e-14
2.494910399e-14
2.416868794e-14
2.315855307e-14
3.648917728e-14
3.613075696e-14
3.538690837e-14
3.435429682e-14
3.313804211e-14
4.906331908e-14
4.860593038e-14
4.761937085e-14
4.615429275e-14
4.42263645e-14
5.426893959e-14
5.374872302e-14
5.261429765e-14
5.091692077e-14
4.868822948e-14
6.239413248e-14
6.186197272e-14
6.069819036e-14
5.895131346e-14
5.666733092e-14
8.07750492e-14
8.047296526e-14
7.98456618e-14
7.895520005e-14
7.787381683e-14
3.448872718e-09
1.750961596e-08
1.211353066e-08
1.075881086e-08
1.101288101e-08
1.062495832e-08
8.881536463e-09
7.249512072e-09
6.807386748e-09
6.557741201e-09
6.581709606e-09
6.037432458e-09
5.950995414e-09
6.270552082e-09
6.061995127e-09
5.850495189e-09
6.883846562e-09
9.525847625e-09
1.350977569e-08
1.138198725e-08
6.306302706e-09
2.774799525e-09
1.012887341e-09
3.126063487e-10
9.111826639e-11
2.680743431e-11
8.919087437e-12
3.125293913e-12
1.158430501e-12
4.150925191e-13
1.650877614e-13
7.066957432e-14
3.626847421e-14
2.430479398e-14
2.191644433e-14
2.350189367e-14
2.525689784e-14
2.454364924e-14
2.091505772e-14
1.391023961e-14
5.956120889e-15
1.293972005e-15
1.256313053e-15
1.498669753e-17
0
0
0
4.727802088e-16
1.581298975e-16
0
0
0
2.557127192e-16
1.586612348e-15
2.223051914e-15
2.524095336e-15
3.113880027e-15
4.101816653e-15
5.85957603e-15
8.535946541e-15
1.253192646e-14
1.608826708e-14
1.904936973e-14
1.853394288e-14
2.231901211e-14
3.217379124e-14
4.266169194e-14
4.690284429e-14
5.486067779e-14
7.700894044e-14
1.153722473e-08
3.545645187e-08
2.062380146e-09
1.586632236e-09
9.562696658e-11
9.26029571e-08
1.448185879e-06
9.40509071e-08
2.933948043e-09
8.854069242e-10
4.997947608e-08
4.576750904e-07
1.030530821e-07
7.960021959e-09
4.849864977e-09
4.419082871e-08
4.516772591e-07
3.565194911e-06
2.777422111e-07
2.837471995e-08
4.437959561e-08
4.420671082e-07
3.518851252e-06
3.816704223e-07
3.275535907e-08
3.891867701e-08
3.413506055e-07
2.347603635e-06
3.490398373e-07
3.64191809e-08
3.101921258e-08
2.429077756e-07
1.474646487e-06
2.940769391e-07
4.254559734e-08
2.42341439e-08
1.758233068e-07
9.930526999e-07
1.548943766e-06
2.091302448e-07
2.173222556e-08
1.539662533e-07
8.930273264e-07
3.176245003e-06
4.853982257e-07
2.002384436e-08
1.330521137e-07
7.325186435e-07
2.71920042e-06
4.986369537e-07
1.952885172e-08
1.154314901e-07
6.016903555e-07
2.203445203e-06
4.661562553e-07
1.691429492e-08
1.005725643e-07
5.00836558e-07
1.801547381e-06
6.64913775e-07
1.636065431e-08
9.790467822e-08
4.490290564e-07
1.684087096e-06
2.404424883e-06
1.684845816e-08
9.344382372e-08
3.983625939e-07
1.44897431e-06
2.469644323e-06
1.555612076e-08
7.917786611e-08
3.45313197e-07
1.226040517e-06
2.185959935e-06
1.443116196e-08
6.845963022e-08
3.12786225e-07
1.059691925e-06
1.965974276e-06
1.640668105e-08
7.443055758e-08
3.10843261e-07
1.028231635e-06
1.96022532e-06
2.237962399e-08
1.002022101e-07
3.958506802e-07
1.302163425e-06
2.482215214e-06
3.020799459e-08
1.234872178e-07
4.452818289e-07
1.340859607e-06
1.038318157e-06
2.264346602e-08
7.102463738e-08
1.908131873e-07
4.259849509e-07
6.691117852e-07
1.092974915e-08
2.560918383e-08
5.163792488e-08
8.561549513e-08
1.047839611e-07
4.15898047e-09
7.410341825e-09
1.143796907e-08
1.454707808e-08
1.408303157e-08
1.312638001e-09
1.805526763e-09
2.178224107e-09
2.231551189e-09
1.853309433e-09
3.577671944e-10
4.01978406e-10
4.045800822e-10
3.582225178e-10
2.713020125e-10
9.564779094e-11
9.438622226e-11
8.457732902e-11
6.834876409e-11
4.920208404e-11
2.663537379e-11
2.435097104e-11
2.045704287e-11
1.580464295e-11
1.122200537e-11
8.639402108e-12
7.6569378e-12
6.307781062e-12
4.851875098e-12
3.557464995e-12
2.995277172e-12
2.650099841e-12
2.144359555e-12
1.561344996e-12
1.2220571e-12
1.114513274e-12
1.01410421e-12
8.24347486e-13
6.207258245e-13
4.419054873e-13
3.945534822e-13
3.3730571e-13
2.959457526e-13
2.448274618e-13
1.86453655e-13
1.580821321e-13
1.418345727e-13
1.245487585e-13
1.041655651e-13
8.20822581e-14
6.840954869e-14
6.221649339e-14
5.47618709e-14
4.934908418e-14
4.260663886e-14
3.544830371e-14
3.349723111e-14
3.150529634e-14
2.901129536e-14
2.715432529e-14
2.44536499e-14
2.43164899e-14
2.423832799e-14
2.442854445e-14
2.509158619e-14
2.225789973e-14
2.313881631e-14
2.436929066e-14
2.600915501e-14
2.829853984e-14
2.421712707e-14
2.568935693e-14
2.765054269e-14
3.050416047e-14
3.419513752e-14
2.628142961e-14
2.840959843e-14
3.105288921e-14
3.436503231e-14
3.852692299e-14
2.586261434e-14
2.84914641e-14
3.1372293e-14
3.42470114e-14
3.719656352e-14
2.224108972e-14
2.439994482e-14
2.651417167e-14
2.852035759e-14
3.056804709e-14
1.480982844e-14
1.600979619e-14
1.709777382e-14
1.829492306e-14
1.986036277e-14
6.469525347e-15
7.426582454e-15
8.550040837e-15
1.000821278e-14
1.079649221e-14
1.82710176e-15
3.049712877e-15
3.670126765e-15
3.723389289e-15
3.249050985e-15
1.330985533e-15
1.235760959e-15
8.899382216e-16
5.904705639e-16
3.613440875e-16
0
0
0
0
0
0
0
0
0
0
0
0
0
0
1.605374385e-17
0
0
1.564036009e-17
1.219780208e-16
8.563664087e-17
3.352760219e-16
2.101856265e-16
1.631248709e-16
7.422106707e-17
0
1.223468804e-16
0
0
0
0
0
0
0
0
0
0
0
0
0
0
0
0
0
0
0
1.124678662e-16
0
0
1.606778699e-16
2.228418477e-16
1.420686666e-15
1.063013383e-15
7.987883423e-16
6.309893863e-16
4.624145327e-16
1.981786409e-15
1.612722667e-15
1.201609937e-15
8.032524434e-16
4.634330648e-16
2.249455996e-15
1.797623781e-15
1.328246542e-15
8.792271454e-16
5.219193521e-16
2.732330517e-15
2.150407846e-15
1.605860764e-15
1.112678886e-15
6.896613466e-16
3.647021434e-15
2.910045248e-15
2.19404715e-15
1.508997785e-15
8.199249095e-16
5.184405004e-15
4.069450442e-15
3.066092491e-15
2.12063194e-15
1.245292394e-15
7.700254578e-15
6.359627095e-15
5.032110811e-15
3.792819798e-15
2.721679287e-15
1.168098555e-14
1.0323262e-14
8.994940007e-15
7.86646934e-15
7.103568614e-15
1.555289214e-14
1.493854163e-14
1.471009895e-14
1.535997621e-14
1.719312728e-14
1.88780479e-14
1.922543238e-14
1.643981344e-14
1.463712486e-14
1.351446363e-14
1.753704914e-14
1.591384446e-14
1.419343269e-14
1.258990997e-14
1.123895214e-14
2.082850068e-14
1.845811448e-14
1.610758168e-14
1.390554401e-14
1.209775517e-14
3.057448422e-14
2.742940651e-14
2.415824414e-14
2.11415083e-14
1.782307704e-14
4.035421015e-14
3.632392318e-14
3.198854262e-14
2.696554474e-14
2.164054551e-14
4.429620592e-14
3.949241703e-14
3.416102626e-14
2.863434568e-14
2.348897701e-14
5.225030083e-14
4.765271624e-14
4.206450743e-14
3.769063744e-14
3.429257138e-14
7.530681478e-14
7.297596602e-14
7.089162416e-14
6.877838087e-14
6.673935777e-14
3.308719467e-13
0
0
0
0
0
0
0
0
0
0
0
0
0
0
0
0
0
0
0
0
0
0
0
0
0
0
0
0
0
0
0
0
0
0
0
0
0
0
0
0
0
0
0
0
0
0
0
0
0
0
0
0
0
0
0
0
0
0
0
5.151002791e-12
1.549852865e-12
0
0
0
0
0
0
0
0
0
0
0
0
0
0
0
0
0
0
0
0
0
0
0
0
0
0
0
0
0
0
0
0
0
0
0
0
0
0
0
0
0
0
0
0
0
0
0
0
0
0
0
0
0
0
0
0
0
0
3.722185802e-11
2.054498038e-16
0
0
0
0
0
0
0
0
0
0
0
0
0
0
0
0
0
0
0
0
0
0
0
0
0
0
0
0
0
0
0
0
0
0
0
0
0
0
0
0
0
0
0
0
0
0
0
0
0
0
0
0
0
0
0
0
0
0
5.641235956e-10
4.127977384e-12
5.085747048e-13
0
0
0
0
0
0
0
0
0
0
0
0
0
0
0
0
0
0
0
0
0
0
0
0
0
0
0
0
0
0
0
0
0
0
0
0
0
0
0
0
0
0
0
0
0
0
0
0
0
0
0
0
0
0
0
0
0
2.863371218e-09
4.445910464e-11
4.670125851e-13
2.052235105e-13
0
0
0
0
0
0
0
0
0
0
0
0
0
0
0
0
0
0
0
0
0
0
0
0
0
0
0
0
0
0
0
0
0
0
0
0
0
0
0
0
0
0
0
0
0
0
0
0
0
0
0
0
0
0
0
0
1.313639166e-08
4.883713958e-10
9.767500465e-12
2.681787079e-12
7.809785022e-14
0
0
0
0
0
0
0
0
0
0
0
0
0
0
0
0
0
0
0
0
0
0
0
0
0
0
0
0
0
0
0
0
0
0
0
0
0
0
0
0
0
0
0
0
0
0
0
0
0
0
0
0
0
0
0
1.63006598e-08
2.045506748e-09
8.376310875e-11
2.613743944e-12
8.423748718e-13
0
0
0
0
0
0
0
0
0
0
0
0
0
0
0
0
0
0
0
0
0
0
0
0
0
0
0
0
0
0
0
0
0
0
0
0
0
0
0
0
0
0
0
0
0
0
0
0
0
0
0
0
0
0
0
1.945088155e-08
6.676468211e-09
5.369329404e-10
2.347730455e-11
2.531538558e-12
5.436505096e-13
0
0
0
0
0
0
0
0
0
0
0
0
0
0
0
0
0
0
0
0
0
0
0
0
0
0
0
0
0
0
0
0
0
0
0
0
0
0
0
0
0
0
0
0
0
0
0
0
0
0
0
0
0
0
4.643375824e-08
1.380056924e-08
2.39377462e-09
1.742012381e-10
7.679056092e-12
2.794228655e-12
1.603494799e-13
0
0
0
0
0
0
0
0
0
0
0
0
0
0
0
0
0
0
0
0
0
0
0
0
0
0
0
0
0
0
0
0
0
0
0
0
0
0
0
0
0
0
0
0
0
0
0
0
0
0
0
0
0
5.877287556e-08
1.388497464e-08
7.805696139e-09
8.235433148e-10
5.323038428e-11
1.971522612e-12
8.220792818e-13
0
0
0
0
0
0
0
0
0
0
0
0
0
0
0
0
0
0
0
0
0
0
0
0
0
0
0
0
0
0
0
0
0
0
0
0
0
0
0
0
0
0
0
0
0
0
0
0
0
0
0
0
0
6.672221465e-08
7.936090126e-09
1.669652394e-08
3.254759787e-09
2.651509589e-10
1.245806047e-11
3.360574209e-12
2.785871715e-13
0
0
0
0
0
0
0
0
0
0
0
0
0
0
0
0
0
0
0
0
0
0
0
0
0
0
0
0
0
0
0
0
0
0
0
0
0
0
0
0
0
0
0
0
0
0
0
0
0
0
0
0
1.067315985e-07
1.439496606e-08
1.976942591e-08
1.122413273e-08
1.064797278e-09
5.719080535e-11
1.722238281e-12
8.007696702e-13
2.594711532e-14
0
0
0
0
0
0
0
0
0
0
0
0
0
0
0
0
0
0
0
0
0
0
0
0
0
0
0
0
0
0
0
0
0
0
0
0
0
0
0
0
0
0
0
0
0
0
0
0
0
0
0
3.683611803e-07
4.583641478e-08
1.678963243e-08
3.23876752e-08
3.601490011e-09
2.158210219e-10
7.586448003e-12
1.622465015e-12
1.230066549e-13
0
0
0
0
0
0
0
0
0
0
0
0
0
0
0
0
0
0
0
0
0
0
0
0
0
0
0
0
0
0
0
0
0
0
0
0
0
0
0
0
0
0
0
0
0
0
0
0
0
0
0
4.424050021e-07
6.401149907e-08
1.419332123e-08
6.376127068e-08
9.59498189e-09
6.476243393e-10
2.666040537e-11
4.550315971e-12
2.657010813e-13
0
0
0
0
0
0
0
0
0
0
0
0
0
0
0
0
0
0
0
0
0
0
0
0
0
0
0
0
0
0
0
0
0
0
0
0
0
0
0
0
0
0
0
0
0
0
0
0
0
0
0
4.481237156e-07
7.72303067e-08
2.156816662e-08
8.953934296e-08
1.840203011e-08
1.339604418e-09
6.442444022e-11
1.050059392e-11
6.420113322e-13
8.42260623e-15
0
0
0
0
0
0
0
0
0
0
0
0
0
0
0
0
0
0
0
0
0
0
0
0
0
0
0
0
0
0
0
0
0
0
0
0
0
0
0
0
0
0
0
0
0
0
0
0
0
0
4.483952593e-07
9.015976908e-08
3.207917737e-08
1.36891604e-07
2.228637178e-08
1.658810023e-09
8.944570061e-11
4.779652152e-12
6.444632099e-13
1.076819162e-14
0
0
0
0
0
0
0
0
0
0
0
0
0
0
0
0
0
0
0
0
0
0
0
0
0
0
0
0
0
0
0
0
0
0
0
0
0
0
0
0
0
0
0
0
0
0
0
0
0
0
4.712797284e-07
1.011012259e-07
4.963429913e-08
2.810926956e-07
2.400132156e-08
1.42662876e-09
7.408044953e-11
4.185861423e-12
4.114841127e-13
4.359288306e-15
0
0
0
0
0
0
0
0
0
0
0
0
0
0
0
0
0
0
0
0
0
0
0
0
0
0
0
0
0
0
0
0
0
0
0
0
0
0
0
0
0
0
0
0
0
0
0
0
0
0
5.632750901e-07
1.129520778e-07
6.329152621e-08
5.495711291e-08
5.508777204e-09
4.109674253e-10
2.590198915e-11
6.515036017e-13
2.369668644e-13
1.218742665e-15
0
0
0
0
0
0
0
0
0
0
0
0
0
0
0
0
0
0
0
0
0
0
0
0
0
0
0
0
0
0
0
0
0
0
0
0
0
0
0
0
0
0
0
0
0
0
0
0
0
0
2.468817576e-07
7.300259817e-08
1.600674104e-07
1.756713393e-08
1.628818755e-09
1.256506048e-10
8.431305977e-12
1.265923722e-12
1.262686614e-13
2.085968283e-13
0
0
0
0
0
0
0
0
0
0
0
0
0
0
0
0
0
0
0
0
0
0
0
0
0
0
0
0
0
0
0
0
0
0
0
0
0
0
0
0
0
0
0
0
0
0
0
0
0
0
6.356907444e-07
1.729554966e-07
3.06414603e-08
3.929930652e-09
4.149937275e-10
3.713824434e-11
3.859174568e-12
6.954748089e-13
1.791184319e-13
2.198568965e-13
1.875016603e-13
0
0
0
0
0
0
0
0
0
0
0
0
0
0
0
0
0
0
0
0
0
0
0
0
0
0
0
0
0
0
0
0
0
0
0
0
0
0
0
0
0
0
0
0
0
0
0
0
0
8.013739324e-08
2.433495574e-08
4.87425949e-09
7.520696133e-10
9.40179151e-11
1.024418891e-11
3.870522253e-13
2.451774187e-13
1.086299311e-13
5.476129043e-14
2.436177747e-13
1.589203635e-13
0
0
0
0
0
0
0
0
0
0
0
0
0
0
0
0
0
0
0
0
0
0
0
0
0
0
0
0
0
0
0
0
0
0
0
0
0
0
0
0
0
0
0
0
0
0
0
0
9.137833028e-09
3.1266201e-09
7.438638484e-10
1.361659336e-10
2.073684496e-11
2.907354706e-12
4.073800697e-13
8.605483342e-14
0
2.069316289e-14
1.803699387e-14
2.556322127e-13
1.91802236e-13
0
0
0
0
0
0
0
0
0
0
0
0
0
0
0
0
0
0
0
0
0
0
0
0
0
0
0
0
0
0
0
0
0
0
0
0
0
0
0
0
0
0
0
0
0
0
0
1.121748947e-09
4.247921244e-10
1.173620235e-10
2.607066823e-11
5.180994053e-12
1.065937356e-12
2.785691037e-13
5.561977311e-14
2.44936175e-14
1.512575114e-14
1.39587651e-15
1.701077604e-14
2.395067301e-13
1.287426548e-13
0
0
0
0
0
0
0
0
0
0
0
0
0
0
0
0
0
0
0
0
0
0
0
0
0
0
0
0
0
0
0
0
0
0
0
0
0
0
0
0
0
0
0
0
0
0
1.600946333e-10
6.676785849e-11
2.183965747e-11
6.176532967e-12
1.665557752e-12
4.123818799e-13
1.267079696e-13
3.80022478e-14
3.473352558e-14
3.300984975e-14
2.393478794e-14
0
2.310306745e-14
2.525508371e-13
1.351703992e-13
0
0
0
0
0
0
0
0
0
0
0
0
0
0
0
0
0
0
0
0
0
0
0
0
0
0
0
0
0
0
0
0
0
0
0
0
0
0
0
0
0
0
0
0
0
2.91705534e-11
1.343174732e-11
5.057092845e-12
1.858926982e-12
6.438398787e-13
2.271016913e-13
8.942508974e-14
1.475047616e-15
1.948698479e-14
2.869463462e-14
0
1.52607886e-14
0
8.549830149e-15
2.055956752e-13
4.919857712e-14
0
0
0
0
0
0
0
0
0
0
0
0
0
0
0
0
0
0
0
0
0
0
0
0
0
0
0
0
0
0
0
0
0
0
0
0
0
0
0
0
0
0
0
0
6.882762851e-12
3.57448323e-12
1.686696235e-12
7.476318726e-13
3.170708318e-13
1.367082329e-13
6.08599966e-14
2.474071375e-14
0
2.453667882e-14
2.48772161e-14
0
1.065316773e-14
1.294185332e-14
6.832942478e-14
2.062592013e-13
2.663047443e-14
0
0
0
0
0
0
0
0
0
0
0
0
0
0
0
0
0
0
0
0
0
0
0
0
0
0
0
0
0
0
0
0
0
0
0
0
0
0
0
0
0
0
0
2.247795636e-12
1.272997716e-12
6.846431664e-13
3.249038229e-13
1.584720547e-13
6.535643256e-14
3.652053107e-14
1.232168688e-14
0
2.095075532e-14
3.584046907e-14
3.33653216e-14
0
0
3.88318687e-14
3.423209722e-13
4.048229694e-13
9.173488241e-14
0
0
0
0
0
0
0
0
0
0
0
0
0
0
0
0
0
0
0
0
0
0
0
0
0
0
0
0
0
0
0
0
0
0
0
0
0
0
0
0
0
0
8.447472475e-13
4.996006482e-13
2.469164537e-13
1.473024719e-13
7.588815444e-14
4.492070423e-14
2.913500722e-14
1.8461583e-14
1.612075205e-14
2.832203067e-14
3.728500952e-14
4.393336905e-14
0
2.546532507e-14
2.588859191e-16
4.757115466e-14
4.111620315e-13
5.507256453e-13
1.069831165e-13
0
0
0
0
0
0
0
0
0
0
0
0
0
0
0
0
0
0
0
0
0
0
0
0
0
0
0
0
0
0
0
0
0
0
0
0
0
0
0
0
0
3.210445348e-13
2.041478772e-13
1.254695107e-13
7.169567296e-14
3.332172791e-14
2.901345455e-14
2.481638609e-14
2.3149906e-14
2.079124665e-14
2.843064739e-14
3.666411197e-14
4.32105995e-14
3.678338452e-14
0
2.852702396e-14
3.988194293e-14
1.22611207e-13
3.418490351e-13
1.267531381e-13
0
0
0
0
0
0
0
0
0
0
0
0
0
0
0
0
0
0
0
0
0
0
0
0
0
0
0
0
0
0
0
0
0
0
0
0
0
0
0
0
0
1.383986043e-13
9.47775291e-14
5.974310564e-14
4.174560168e-14
2.880577555e-14
2.59322504e-14
2.378533917e-14
2.404000561e-14
2.666073433e-14
2.951866525e-14
3.502214279e-14
4.082686679e-14
5.003062345e-14
4.115121771e-14
1.943683433e-14
0
3.671940673e-14
3.629537337e-13
4.673709478e-13
1.696697431e-13
0
0
0
0
0
0
0
0
0
0
0
0
0
0
0
0
0
0
0
0
0
0
0
0
0
0
0
0
0
0
0
0
0
0
0
0
0
0
0
0
6.470490631e-14
4.844988069e-14
3.544446418e-14
2.874600752e-14
2.534108311e-14
2.425887389e-14
2.461068118e-14
2.632087211e-14
2.961818734e-14
3.279602826e-14
3.608386244e-14
4.191680675e-14
4.039404529e-14
3.567216309e-14
0
7.472321569e-15
0
1.704758575e-14
4.666787847e-13
5.701536398e-13
1.903829719e-13
0
0
0
0
0
0
0
0
0
0
0
0
0
0
0
0
0
0
0
0
0
0
0
0
0
0
0
0
0
0
0
0
0
0
0
0
0
0
0
3.534284408e-14
2.958738673e-14
2.692049077e-14
2.52347633e-14
2.453377717e-14
2.619426479e-14
2.775847149e-14
3.184657895e-14
3.571702547e-14
3.805269793e-14
3.847917798e-14
3.932735949e-14
3.778975311e-14
3.806251467e-14
2.191871864e-14
2.330273425e-14
2.566387486e-14
9.278682043e-14
4.371770605e-13
5.757366145e-13
2.677076774e-13
1.100320552e-14
0
0
0
0
0
0
0
0
0
0
0
0
0
0
0
0
0
0
0
0
0
0
0
0
0
0
0
0
0
0
0
0
0
0
0
0
0
0
2.652456597e-14
2.559607402e-14
2.560997656e-14
2.676615107e-14
3.045986302e-14
3.244659903e-14
3.639631647e-14
3.828907677e-14
3.956915632e-14
4.18747132e-14
4.126372866e-14
3.802721856e-14
3.485752157e-14
3.410750609e-14
2.935082424e-14
0
1.012154916e-14
0
1.669952911e-14
4.772675991e-13
5.898410822e-13
2.397701606e-13
0
0
0
0
0
0
0
0
0
0
0
0
0
0
0
0
0
0
0
0
0
0
0
0
0
0
0
0
0
0
0
0
0
0
0
0
0
0
2.620116304e-14
2.813639397e-14
3.135454627e-14
3.317096014e-14
3.744619523e-14
3.897791837e-14
4.340966135e-14
4.574227599e-14
4.595837835e-14
4.759611074e-14
4.699868437e-14
4.405547394e-14
4.384116281e-14
4.58875344e-14
5.218376668e-14
4.658547125e-14
7.047153446e-14
1.214462111e-13
2.569050074e-13
5.91365338e-13
8.196668782e-13
7.381092081e-13
2.633286454e-13
0
0
0
0
0
0
0
0
0
0
0
0
0
0
0
0
0
0
0
0
0
0
0
0
0
0
0
0
0
0
0
0
0
0
0
0
0
3.166170178e-14
3.575650806e-14
4.017032316e-14
4.231030434e-14
4.766301407e-14
5.214511096e-14
5.35635965e-14
5.464970748e-14
5.294048282e-14
5.174014584e-14
5.247090854e-14
5.105250774e-14
5.023509464e-14
4.965079496e-14
5.132677233e-14
5.575912503e-14
4.679739544e-14
4.758177393e-14
9.831519559e-15
0
5.534191112e-13
7.406984522e-13
3.812799754e-13
6.356440857e-14
0
0
0
0
0
0
0
0
0
0
0
0
0
0
0
0
0
0
0
0
0
0
0
0
0
0
0
0
0
0
0
0
0
0
0
0
3.91847335e-14
4.368063825e-14
4.836086346e-14
5.0007455e-14
5.240433199e-14
5.788960478e-14
6.033573645e-14
6.052674363e-14
5.833070095e-14
5.55349427e-14
5.453847092e-14
5.299973552e-14
5.069116298e-14
4.813681403e-14
4.972539832e-14
5.354749436e-14
4.025883415e-14
4.036498221e-14
3.107681739e-14
2.162738793e-14
6.446630263e-14
6.374798788e-13
7.226909542e-13
3.048679755e-13
3.719660763e-15
0
0
0
0
0
0
0
0
0
0
0
0
0
0
0
0
0
0
0
0
0
0
0
0
0
0
0
0
0
0
0
0
0
0
0
4.342021116e-14
4.790229819e-14
5.00979711e-14
5.133324417e-14
5.271479183e-14
5.755916149e-14
5.946306674e-14
5.954552673e-14
5.805738338e-14
5.261596618e-14
5.036895346e-14
4.713570588e-14
4.299476058e-14
4.232803566e-14
3.771693094e-14
3.539527556e-14
2.121696283e-14
1.758694931e-14
1.238927159e-14
0
0
5.855551915e-13
8.449430855e-13
5.543924284e-13
1.908672096e-13
0
0
0
0
0
0
0
0
0
0
0
0
0
0
0
0
0
0
0
0
0
0
0
0
0
0
0
0
0
0
0
0
0
0
0
4.075933522e-14
4.392174391e-14
4.461714383e-14
4.441864575e-14
4.421387585e-14
4.766512335e-14
4.852073122e-14
4.798353349e-14
4.614811932e-14
4.056519037e-14
3.800785226e-14
3.346188453e-14
2.781149285e-14
2.557455972e-14
1.901113622e-14
1.720308741e-14
1.812517751e-14
3.600580164e-15
7.137675124e-15
1.395622247e-15
5.562387484e-16
0
6.672570326e-13
8.024712321e-13
4.066133761e-13
7.107138019e-14
0
0
0
0
0
0
0
0
0
0
0
0
0
0
0
0
0
0
0
0
0
0
0
0
0
0
0
0
0
0
0
0
0
0
3.308984979e-14
3.449761107e-14
3.487902195e-14
3.454032738e-14
3.544424588e-14
3.510299728e-14
3.4829914e-14
3.601440436e-14
3.209230167e-14
2.677101161e-14
2.462583762e-14
1.949336048e-14
1.292489252e-14
7.140374263e-15
4.780417345e-15
7.411924115e-15
1.45130667e-14
6.938088389e-15
7.373828239e-15
9.38029089e-15
7.263395432e-16
0
6.836364278e-13
1.077180014e-12
1.156461236e-12
3.881541997e-13
1.229264004e-14
0
0
0
0
0
0
0
0
0
0
0
0
0
0
0
0
0
0
0
0
0
0
0
0
0
0
0
0
0
0
0
0
0
2.129290216e-14
2.153332659e-14
2.104013547e-14
2.029087413e-14
2.222555257e-14
2.129621957e-14
2.006330028e-14
2.134425428e-14
1.845341268e-14
1.512810137e-14
1.514242977e-14
1.101733892e-14
6.018137469e-15
2.327123966e-15
4.14675934e-15
2.13296723e-15
6.953975951e-15
3.065451763e-15
4.117118478e-15
1.628167984e-14
2.534863554e-14
2.584681094e-14
0
7.44932936e-13
9.308644002e-13
5.002484303e-13
1.247591646e-13
0
0
0
0
0
0
0
0
0
0
0
0
0
0
0
0
0
0
0
0
0
0
0
0
0
0
0
0
0
0
0
0
0
1.070176503e-14
1.038642349e-14
9.979575395e-15
1.074128801e-14
1.008689472e-14
9.008373573e-15
7.961231829e-15
9.755861383e-15
7.795037341e-15
5.847401601e-15
7.524277057e-15
5.260506489e-15
2.552795738e-15
9.99925821e-16
3.682037668e-15
1.318412418e-15
2.592048087e-15
9.395738041e-15
1.732425641e-15
9.124910212e-15
1.719739967e-14
2.767315522e-15
0
7.433901681e-13
1.118101375e-12
9.961869591e-13
4.395133699e-13
6.128209539e-14
0
0
0
0
0
0
0
0
0
0
0
0
0
0
0
0
0
0
0
0
0
0
0
0
0
0
0
0
0
0
0
0
2.609507878e-15
1.430547082e-15
2.779441304e-16
1.645647001e-15
1.188314625e-15
6.556121672e-16
5.941045413e-16
3.680712229e-15
2.200271497e-15
6.816167528e-16
2.995634871e-15
2.168801614e-15
1.200259063e-15
6.964525865e-16
3.589287561e-15
1.223050585e-15
2.336403058e-15
9.85082458e-15
2.372756818e-15
1.110863981e-14
2.291402059e-14
2.322498024e-14
5.193994978e-14
7.455317646e-15
7.905096795e-13
9.881747228e-13
5.76676102e-13
1.785868458e-13
0
0
0
0
0
0
0
0
0
0
0
0
0
0
0
0
0
0
0
0
0
0
0
0
0
0
0
0
0
0
0
0
4.695059716e-17
5.239547585e-17
8.839406364e-16
8.467482246e-16
6.211928313e-16
0
0
1.071721209e-15
3.740526196e-16
0
7.538047154e-16
8.458443044e-16
2.922864565e-16
9.181795178e-16
3.417176772e-15
9.839485527e-16
1.287447519e-15
5.764059512e-15
2.398577547e-15
2.903035376e-15
1.412216753e-14
2.535879729e-14
1.097561006e-14
0
7.643248357e-13
1.162308315e-12
1.05992581e-12
4.938591865e-13
9.747102679e-14
0
0
0
0
0
0
0
0
0
0
0
0
0
0
0
0
0
0
0
0
0
0
0
0
0
0
0
0
0
0
0
0
5.06795935e-16
4.688947352e-16
0
0
3.624746941e-17
1.31065615e-15
4.102129156e-16
5.918302577e-17
0
0
1.904798717e-16
1.756187533e-16
5.669082084e-16
3.23812752e-15
0
9.214423507e-16
2.777274679e-15
1.012951661e-14
2.60853366e-15
6.904040401e-15
9.280387222e-15
0
0
1.643692962e-13
8.523037005e-13
1.032428451e-12
6.213330152e-13
2.12081819e-13
0
0
0
0
0
0
0
0
0
0
0
0
0
0
0
0
0
0
0
0
0
0
0
0
0
0
0
0
0
0
0
3.702115286e-16
3.094562128e-16
0
0
0
1.995106247e-16
2.095151659e-15
4.917166759e-16
0
0
0
0
1.280199197e-16
5.330713897e-16
3.246335933e-15
0
1.061305551e-15
3.878220695e-15
1.236699519e-14
4.141747628e-15
7.337730464e-15
1.556010669e-14
2.906643145e-14
1.89873269e-14
0
7.993583889e-13
1.198984089e-12
1.092254184e-12
5.270987577e-13
1.189037913e-13
0
0
0
0
0
0
0
0
0
0
0
0
0
0
0
0
0
0
0
0
0
0
0
0
0
0
0
0
0
0
1.181645088e-16
0
0
0
0
4.151214154e-16
2.407556583e-16
1.462229024e-17
0
0
0
0
0
0
4.469840014e-16
7.969687761e-16
2.372651502e-15
7.229614308e-15
1.470756814e-14
6.205642636e-15
9.828348115e-15
1.837003611e-14
2.181339296e-14
0
0
6.19161109e-13
1.059759748e-12
1.11981241e-12
6.678160894e-13
2.365203871e-13
7.714889886e-16
0
0
0
0
0
0
0
0
0
0
0
0
0
0
0
0
0
0
0
0
0
0
0
0
0
0
0
0
0
0
0
0
0
0
6.795867036e-16
2.04406358e-16
0
0
0
0
1.026870607e-17
0
1.931932728e-15
5.584588857e-15
1.120567851e-14
1.791954017e-14
2.610112339e-14
3.319217393e-14
3.545027307e-14
4.686568355e-14
6.050783188e-14
6.696181237e-14
5.41669096e-14
5.952235252e-14
0
8.534427859e-13
1.264977357e-12
1.21742295e-12
5.574900896e-13
1.267082239e-13
0
0
0
0
0
0
0
0
0
0
0
0
0
0
0
0
0
0
0
0
0
0
0
0
0
0
0
0
0
0
0
0
0
4.475339351e-16
1.650381845e-16
7.574976115e-17
0
0
1.697698819e-17
1.600563044e-15
4.930066946e-15
1.041420216e-14
1.886519271e-14
2.907126833e-14
4.163453181e-14
5.497241609e-14
6.5317707e-14
7.211669834e-14
6.190115806e-14
8.747893468e-14
9.784160723e-14
1.037600787e-13
9.610527552e-14
6.508704162e-14
0
7.342479643e-13
1.18579527e-12
1.202571863e-12
6.980339175e-13
2.463017445e-13
1.666828033e-15
0
0
0
0
0
0
0
0
0
0
0
0
0
0
0
0
0
0
0
0
0
0
0
0
0
0
0
0
0
0
0
0
5.663742123e-17
7.821752323e-17
1.121789254e-16
3.367029277e-16
1.462799621e-15
6.666975386e-15
1.031758994e-14
1.79568656e-14
2.878505567e-14
4.285890122e-14
5.905521676e-14
7.786182568e-14
9.603027231e-14
1.147992785e-13
1.289980052e-13
1.283890502e-13
1.470651631e-13
1.526138655e-13
1.557942167e-13
1.483321876e-13
1.193080079e-13
1.038464509e-13
0
8.909795152e-13
1.275738185e-12
1.18585296e-12
5.340469082e-13
1.204544242e-13
0
0
0
0
0
0
0
0
0
0
0
0
0
0
0
0
0
0
0
0
0
0
0
0
0
0
0
0
0
0
0
1.192530749e-16
8.310041374e-17
2.277100032e-16
6.656229349e-16
7.373303326e-16
4.768201859e-15
1.113958798e-14
1.947990799e-14
2.981099967e-14
4.321595622e-14
5.875665815e-14
7.555836558e-14
9.636858209e-14
1.175821724e-13
1.385907068e-13
1.552979694e-13
1.686656807e-13
1.663820478e-13
1.6290895e-13
1.604917081e-13
1.518509075e-13
1.34643671e-13
1.011328014e-13
0
7.925190429e-13
1.245589378e-12
1.222251082e-12