/*--------------------------------*- C++ -*----------------------------------*\
  =========                 |
  \\      /  F ield         | OpenFOAM: The Open Source CFD Toolbox
   \\    /   O peration     | Website:  https://openfoam.org
    \\  /    A nd           | Version:  10
     \\/     M anipulation  |
\*---------------------------------------------------------------------------*/
FoamFile
{
    format      ascii;
    class       volScalarField;
    location    "0.02499901733";
    object      HO2;
}
// * * * * * * * * * * * * * * * * * * * * * * * * * * * * * * * * * * * * * //

dimensions      [0 0 0 0 0 0 0];

internalField   nonuniform List<scalar> 
5170
(
8.538649816e-09
8.524114636e-09
8.427375348e-09
7.740832681e-09
5.890413864e-10
1.698346716e-08
1.693805996e-08
1.673217958e-08
1.568204273e-08
9.718109022e-09
2.537092407e-08
2.529508684e-08
2.499352576e-08
2.373744913e-08
1.880212051e-08
3.368672359e-08
3.358355916e-08
3.320983557e-08
3.186929217e-08
2.79340819e-08
4.192793754e-08
4.180185991e-08
4.138235663e-08
4.005647812e-08
3.710917859e-08
5.008985354e-08
4.994938769e-08
4.951243376e-08
4.829163307e-08
4.632707338e-08
5.817203155e-08
5.802442777e-08
5.759789898e-08
5.657294788e-08
5.55854723e-08
6.618045294e-08
6.603560327e-08
6.564504577e-08
6.489254197e-08
6.488008192e-08
7.411973073e-08
7.398657992e-08
7.366043307e-08
7.325046136e-08
7.42064779e-08
8.199898352e-08
8.188364894e-08
8.164200145e-08
8.165108582e-08
8.356444714e-08
8.982522301e-08
8.973340734e-08
8.95912822e-08
9.009721216e-08
9.295162345e-08
9.760056864e-08
9.753989852e-08
9.75291158e-08
9.858699324e-08
1.023594362e-07
1.053293604e-07
1.053080485e-07
1.054682838e-07
1.071228509e-07
1.117814826e-07
1.130174651e-07
1.130437415e-07
1.134106857e-07
1.157078923e-07
1.212132347e-07
1.206697338e-07
1.207533005e-07
1.213595227e-07
1.243409907e-07
1.306480212e-07
1.282880465e-07
1.284397188e-07
1.293295972e-07
1.330268329e-07
1.400665071e-07
1.358757009e-07
1.361077837e-07
1.373153722e-07
1.417507831e-07
1.494786515e-07
1.434362933e-07
1.437641502e-07
1.453431891e-07
1.505248943e-07
1.588537697e-07
1.509725926e-07
1.514144514e-07
1.534260925e-07
1.593718403e-07
1.682626114e-07
1.585370608e-07
1.59308953e-07
1.627839331e-07
1.744533642e-07
2.018622121e-07
3.00303366e-06
3.005291205e-06
3.004548411e-06
3.008748908e-06
3.016446729e-06
2.347906359e-06
2.443258686e-06
2.444802267e-06
2.42225814e-06
2.294449637e-06
1.801635779e-06
1.938919927e-06
1.939834449e-06
1.896365449e-06
1.729042794e-06
1.510523118e-06
1.62506537e-06
1.62884537e-06
1.568695431e-06
1.420738252e-06
1.327280758e-06
1.423342645e-06
1.431815258e-06
1.380993795e-06
1.258450012e-06
1.227015775e-06
1.307581189e-06
1.314886765e-06
1.266394462e-06
1.180389396e-06
1.1564581e-06
1.22542007e-06
1.230401068e-06
1.204319253e-06
1.145563327e-06
1.145891379e-06
1.169563831e-06
1.175981184e-06
1.1505126e-06
1.157514524e-06
1.157650632e-06
1.145953898e-06
1.145306882e-06
1.154077434e-06
1.105147183e-06
1.110963956e-06
1.154833541e-06
1.154274164e-06
1.127702804e-06
1.081715551e-06
1.085796431e-06
1.119291828e-06
1.122060336e-06
1.098227276e-06
1.080331765e-06
1.08055782e-06
1.091787057e-06
1.094949539e-06
1.081524004e-06
1.073657416e-06
1.073263202e-06
1.079946728e-06
1.079433114e-06
1.076804057e-06
1.06925709e-06
1.068722713e-06
1.074604839e-06
1.075122353e-06
1.071506776e-06
1.064018183e-06
1.064141832e-06
1.070007171e-06
1.070554959e-06
1.066469563e-06
1.058645544e-06
1.0593966e-06
1.065684462e-06
1.066139844e-06
1.061432209e-06
1.05331223e-06
1.054737363e-06
1.061168383e-06
1.061508069e-06
1.056267462e-06
1.047987498e-06
1.050476141e-06
1.056523173e-06
1.056600674e-06
1.051029659e-06
1.042667662e-06
1.055776493e-06
1.053623697e-06
1.051886772e-06
1.045893829e-06
1.03756983e-06
2.136254326e-06
1.180169083e-06
1.077589264e-06
1.054971957e-06
1.034298464e-06
1.664401465e-07
1.728106175e-07
2.694794537e-07
1.654425484e-06
1.448144541e-05
1.771391838e-07
2.025358576e-07
5.264131082e-07
3.771999233e-06
2.061347197e-05
1.939101133e-07
2.632384003e-07
9.818524272e-07
5.842729597e-06
2.244604726e-05
2.214666035e-07
3.687630673e-07
1.632618066e-06
7.697326868e-06
2.212177951e-05
2.685482699e-07
5.506151493e-07
2.62789871e-06
9.180112345e-06
2.065947498e-05
3.439355212e-07
8.11789532e-07
3.468150519e-06
1.016858157e-05
1.899013581e-05
4.588081363e-07
1.164903601e-06
4.35504375e-06
1.076844949e-05
1.773629254e-05
6.295349588e-07
1.635976324e-06
5.216174061e-06
1.114286044e-05
1.691566473e-05
8.842354095e-07
2.261470932e-06
5.996965375e-06
1.125233961e-05
1.585890262e-05
1.230931853e-06
2.89606977e-06
6.653567949e-06
1.117817499e-05
1.478732001e-05
1.696622648e-06
3.599180043e-06
7.185438721e-06
1.104102196e-05
1.396486593e-05
2.351647322e-06
4.338730546e-06
7.602520899e-06
1.087377424e-05
1.323475213e-05
3.148385025e-06
5.065794369e-06
7.913066978e-06
1.060206803e-05
1.236378108e-05
4.087109861e-06
5.773837416e-06
8.158189378e-06
1.032247888e-05
1.161686977e-05
5.121097272e-06
6.470802372e-06
8.371916855e-06
1.004523561e-05
1.091005643e-05
6.125446443e-06
7.137267156e-06
8.586139535e-06
9.802242815e-06
1.033325224e-05
7.125308313e-06
7.828194361e-06
8.878342062e-06
9.749543964e-06
1.006567247e-05
8.09898479e-06
8.579833105e-06
9.34117338e-06
9.927624176e-06
1.012092527e-05
9.06146879e-06
9.393169127e-06
9.925877256e-06
1.038086464e-05
1.075613553e-05
1.009901634e-05
1.031285141e-05
1.066843192e-05
1.107032119e-05
1.170230556e-05
1.168505968e-05
1.18850093e-05
1.230319254e-05
1.296600933e-05
1.405396643e-05
1.456823781e-05
1.484971325e-05
1.549652494e-05
1.655653585e-05
1.814133547e-05
1.761294246e-05
1.790110642e-05
1.854980664e-05
1.956340169e-05
2.096113659e-05
1.850367582e-05
1.867195476e-05
1.903640444e-05
1.956971523e-05
2.023879186e-05
1.668734777e-05
1.672921638e-05
1.680747955e-05
1.690073767e-05
1.698602848e-05
1.343663187e-05
1.341211797e-05
1.334784994e-05
1.323516208e-05
1.306709112e-05
1.026194165e-05
1.022140428e-05
1.012425073e-05
9.969948521e-06
9.759492471e-06
7.636277312e-06
7.598860502e-06
7.51164029e-06
7.37665844e-06
7.197419436e-06
5.657272026e-06
5.62875236e-06
5.563534513e-06
5.463017943e-06
5.331138806e-06
4.229040159e-06
4.208718295e-06
4.162403957e-06
4.092470528e-06
3.999789992e-06
3.228175676e-06
3.215020181e-06
3.185523298e-06
3.138104714e-06
3.07571706e-06
2.541864954e-06
2.532380602e-06
2.510973717e-06
2.478576974e-06
2.436261872e-06
2.068887643e-06
2.062369147e-06
2.04775702e-06
2.025719386e-06
1.99711666e-06
1.745411759e-06
1.740805917e-06
1.730521785e-06
1.714974751e-06
1.694489269e-06
1.524925749e-06
1.521441978e-06
1.513727422e-06
1.502109353e-06
1.486859315e-06
1.371161981e-06
1.36849168e-06
1.362610764e-06
1.353698255e-06
1.342302354e-06
1.264617349e-06
1.262389626e-06
1.257529523e-06
1.250239208e-06
1.240641406e-06
1.183980467e-06
1.182108476e-06
1.178058195e-06
1.172016119e-06
1.164081675e-06
1.123547503e-06
1.12188843e-06
1.118318473e-06
1.113007108e-06
1.106032638e-06
1.073153358e-06
1.071624452e-06
1.068303771e-06
1.063294413e-06
1.056669194e-06
1.028402094e-06
1.026949451e-06
1.023801352e-06
1.019107508e-06
1.012845807e-06
9.870029423e-07
9.856236966e-07
9.826694423e-07
9.782815508e-07
9.72517557e-07
9.508455259e-07
9.495202948e-07
9.466816354e-07
9.424593654e-07
9.368968138e-07
9.154736339e-07
9.141986769e-07
9.114680829e-07
9.074171643e-07
9.020237885e-07
8.809028972e-07
8.79698298e-07
8.771171804e-07
8.73272413e-07
8.681978304e-07
8.490629283e-07
8.479004106e-07
8.454098297e-07
8.417060232e-07
8.368281158e-07
8.189597162e-07
8.178702078e-07
8.155223554e-07
8.120358399e-07
8.074600517e-07
7.9494042e-07
7.938829007e-07
7.91619401e-07
7.882522638e-07
7.838144317e-07
7.723593156e-07
7.71327711e-07
7.691221746e-07
7.658437092e-07
7.615231867e-07
7.520183067e-07
7.510317439e-07
7.489324068e-07
7.458166908e-07
7.416872378e-07
7.350937376e-07
7.341336984e-07
7.320777654e-07
7.290227908e-07
7.249954155e-07
7.192703651e-07
7.183193906e-07
7.162883835e-07
7.132718316e-07
7.092959945e-07
7.04023235e-07
7.030880945e-07
7.010918253e-07
6.981295083e-07
6.942329509e-07
6.898497054e-07
6.889714149e-07
6.871015227e-07
6.843211581e-07
6.806558676e-07
6.787531342e-07
6.778908192e-07
6.760511995e-07
6.733201122e-07
6.697243125e-07
6.692600136e-07
6.684115903e-07
6.666020149e-07
6.639177222e-07
6.603810802e-07
6.613310633e-07
6.604790888e-07
6.586612178e-07
6.559638191e-07
6.524115891e-07
6.548775097e-07
6.540182817e-07
6.5218429e-07
6.494615553e-07
6.458766548e-07
6.499398619e-07
6.490839187e-07
6.472585873e-07
6.445521327e-07
6.409948899e-07
6.458608017e-07
6.450167037e-07
6.43217107e-07
6.405488757e-07
6.370414083e-07
6.403008178e-07
6.39485012e-07
6.377476877e-07
6.351765719e-07
6.318053683e-07
6.316436465e-07
6.308829645e-07
6.292629581e-07
6.268658194e-07
6.237280325e-07
6.182888497e-07
6.176034602e-07
6.161408589e-07
6.139700194e-07
6.111089277e-07
6.013385401e-07
6.006706865e-07
5.992302171e-07
5.970726211e-07
5.942084417e-07
5.776866704e-07
5.770210736e-07
5.755925738e-07
5.734640102e-07
5.706557776e-07
5.528782343e-07
5.522571859e-07
5.509302923e-07
5.489665672e-07
5.463756692e-07
5.337510184e-07
5.331580368e-07
5.318871312e-07
5.299973829e-07
5.275112673e-07
5.228573043e-07
5.222993236e-07
5.211069231e-07
5.193367981e-07
5.170086969e-07
5.197675941e-07
5.192350218e-07
5.181005404e-07
5.164179975e-07
5.142003144e-07
5.197352345e-07
5.191978097e-07
5.180521357e-07
5.163542758e-07
5.141209822e-07
2.81484834e-05
3.014478643e-05
2.752044814e-05
2.475299878e-05
2.219300978e-05
2.006344709e-05
1.871429998e-05
1.778307378e-05
1.634270195e-05
1.498753886e-05
1.40633156e-05
1.323659527e-05
1.228597793e-05
1.149730291e-05
1.07554113e-05
1.020042095e-05
1.002009354e-05
1.019069684e-05
1.123801434e-05
1.256048779e-05
1.523977555e-05
1.961599497e-05
2.21381337e-05
2.075069702e-05
1.704168932e-05
1.293608275e-05
9.601791163e-06
7.064696892e-06
5.233956981e-06
3.930963907e-06
3.028943342e-06
2.404477009e-06
1.975021648e-06
1.679113332e-06
1.474916496e-06
1.33338827e-06
1.232807566e-06
1.157540779e-06
1.100119281e-06
1.051075485e-06
1.00756584e-06
9.676627551e-07
9.321768537e-07
8.974586534e-07
8.638888564e-07
8.326807085e-07
8.035964013e-07
7.800381665e-07
7.578390947e-07
7.381793814e-07
7.215600329e-07
7.058953012e-07
6.909083386e-07
6.775289684e-07
6.666480602e-07
6.573369639e-07
6.4936736e-07
6.428083068e-07
6.379526991e-07
6.340406706e-07
6.28928469e-07
6.210659603e-07
6.086572736e-07
5.917549036e-07
5.68272744e-07
5.441818863e-07
5.254094244e-07
5.150247678e-07
5.122872875e-07
5.122071803e-07
1.155906823e-05
3.352780519e-06
3.354922083e-06
1.856624708e-06
2.951587621e-06
1.445943638e-05
1.93338322e-05
5.650330323e-06
6.22586808e-06
9.47958677e-06
1.628190747e-05
1.740279947e-05
4.48347314e-06
1.038629361e-05
2.083534777e-05
1.670227443e-05
1.433826494e-05
4.657971235e-06
1.072458737e-05
2.394236527e-05
1.698107967e-05
1.374170349e-05
1.036025192e-05
9.010535998e-06
1.993405974e-05
1.646378711e-05
1.409108432e-05
1.489745826e-05
7.123250456e-06
1.576599196e-05
1.626268139e-05
1.44576547e-05
1.639543244e-05
5.501631343e-06
1.196113516e-05
1.589780194e-05
1.403709216e-05
1.541818637e-05
4.632819656e-06
9.087427712e-06
1.47359612e-05
1.323010783e-05
1.436288387e-05
6.290710323e-06
7.125785579e-06
1.360604522e-05
1.271281816e-05
1.39205993e-05
7.870135043e-06
5.543009011e-06
1.288002184e-05
1.268221616e-05
1.377531768e-05
9.053403481e-06
4.326808085e-06
1.224617309e-05
1.224265108e-05
1.355594142e-05
1.003383761e-05
3.652138415e-06
1.161657917e-05
1.214079037e-05
1.324950704e-05
1.093355781e-05
4.190135063e-06
1.094246558e-05
1.193442309e-05
1.301572866e-05
1.152419082e-05
5.089662336e-06
1.033880277e-05
1.161932507e-05
1.290509558e-05
1.188171051e-05
5.860976483e-06
9.950709632e-06
1.140097107e-05
1.28631367e-05
1.217296993e-05
6.623901379e-06
9.973715508e-06
1.150072489e-05
1.299568614e-05
1.249839168e-05
7.196559813e-06
1.036869158e-05
1.199904615e-05
1.371460566e-05
1.313537041e-05
7.437884392e-06
1.212245482e-05
1.450767315e-05
1.766100064e-05
1.854748265e-05
8.810697236e-06
1.413190711e-05
1.916422316e-05
2.659935007e-05
4.061204708e-05
6.522570309e-05
1.720102842e-05
2.33124924e-05
3.432237872e-05
5.197843227e-05
7.872230197e-05
2.188439743e-05
2.785375325e-05
3.710447981e-05
4.934473761e-05
6.13231468e-05
2.394003473e-05
2.753778605e-05
3.150769692e-05
3.48481438e-05
3.607572776e-05
2.159732814e-05
2.274798189e-05
2.339376752e-05
2.316686435e-05
2.18111817e-05
1.722955428e-05
1.716180631e-05
1.66199073e-05
1.556156145e-05
1.402268671e-05
1.283491634e-05
1.23791158e-05
1.161872443e-05
1.060116147e-05
9.40024657e-06
9.439555786e-06
8.97701134e-06
8.328751035e-06
7.547956964e-06
6.694559552e-06
6.917968389e-06
6.550797558e-06
6.065800067e-06
5.50705209e-06
4.919095918e-06
5.122913507e-06
4.85995855e-06
4.517077389e-06
4.127467978e-06
3.721456612e-06
3.850511392e-06
3.664648182e-06
3.434574618e-06
3.174644513e-06
2.900505981e-06
2.97294123e-06
2.847137774e-06
2.69156633e-06
2.51513634e-06
2.327759548e-06
2.365468207e-06
2.278473744e-06
2.171385127e-06
2.053144536e-06
1.924790341e-06
1.946942916e-06
1.886141107e-06
1.81201701e-06
1.72723034e-06
1.637306521e-06
1.658847504e-06
1.614492116e-06
1.560458819e-06
1.500075432e-06
1.43654247e-06
1.458236158e-06
1.424562152e-06
1.384681834e-06
1.341042778e-06
1.292988092e-06
1.320374295e-06
1.293922956e-06
1.262593161e-06
1.227713315e-06
1.190283153e-06
1.220698229e-06
1.198220614e-06
1.172864521e-06
1.145421225e-06
1.115740609e-06
1.147067966e-06
1.12842027e-06
1.107226721e-06
1.083118364e-06
1.056536079e-06
1.090399468e-06
1.072868586e-06
1.053266997e-06
1.03133646e-06
1.007507675e-06
1.041744757e-06
1.025259147e-06
1.006927807e-06
9.868610956e-07
9.654167897e-07
9.986678425e-07
9.832034223e-07
9.663986172e-07
9.484624559e-07
9.288330204e-07
9.594570527e-07
9.455323208e-07
9.299056721e-07
9.127752745e-07
8.942152074e-07
9.241653198e-07
9.103471615e-07
8.952574807e-07
8.787793232e-07
8.61007974e-07
8.897356974e-07
8.763739614e-07
8.618678825e-07
8.462361563e-07
8.296411312e-07
8.565553032e-07
8.440059368e-07
8.304061705e-07
8.156608785e-07
8.000111622e-07
8.25617572e-07
8.135677623e-07
8.006625584e-07
7.868856376e-07
7.724129128e-07
7.969903574e-07
7.858763532e-07
7.741688961e-07
7.611486086e-07
7.469980274e-07
7.735581685e-07
7.625226236e-07
7.506297298e-07
7.378018475e-07
7.241391227e-07
7.514877859e-07
7.407227663e-07
7.2920271e-07
7.169784286e-07
7.038455721e-07
7.320999296e-07
7.217517438e-07
7.105756774e-07
6.986089575e-07
6.858459824e-07
7.156370312e-07
7.055474326e-07
6.946973531e-07
6.830582058e-07
6.706465592e-07
7.000032079e-07
6.900244895e-07
6.79337857e-07
6.679393059e-07
6.559094242e-07
6.851429332e-07
6.754609755e-07
6.652071487e-07
6.544081612e-07
6.430829442e-07
6.720698153e-07
6.629504398e-07
6.53168162e-07
6.427924221e-07
6.317938824e-07
6.612756815e-07
6.523924026e-07
6.427912222e-07
6.325556929e-07
6.216709841e-07
6.520361934e-07
6.430974869e-07
6.33566044e-07
6.23377385e-07
6.125191079e-07
6.440539591e-07
6.3508182e-07
6.25503351e-07
6.153004123e-07
6.045168862e-07
6.374555393e-07
6.284803838e-07
6.189613259e-07
6.08887764e-07
5.983188878e-07
6.326299152e-07
6.237395389e-07
6.143540639e-07
6.044548377e-07
5.941070221e-07
6.287838176e-07
6.200499861e-07
6.108843738e-07
6.012914161e-07
5.913359475e-07
6.238862964e-07
6.155533106e-07
6.068392321e-07
5.977420447e-07
5.884250859e-07
6.164176695e-07
6.087112457e-07
6.005148249e-07
5.919027794e-07
5.828447642e-07
6.043934381e-07
5.972582018e-07
5.897054005e-07
5.814175572e-07
5.723742106e-07
5.875338716e-07
5.802978213e-07
5.724527748e-07
5.639605939e-07
5.548422365e-07
5.64222597e-07
5.572441023e-07
5.496758148e-07
5.415464703e-07
5.329493311e-07
5.404630587e-07
5.339891739e-07
5.269772822e-07
5.194813545e-07
5.115044117e-07
5.218390242e-07
5.15767355e-07
5.092866012e-07
5.024062097e-07
4.951811688e-07
5.115865986e-07
5.058304477e-07
4.997606098e-07
4.933705343e-07
4.866610271e-07
5.089008893e-07
5.032822272e-07
4.974917248e-07
4.912612597e-07
4.846339335e-07
5.088680577e-07
5.032423807e-07
4.972781819e-07
4.909408096e-07
4.842056513e-07
1.059921946e-06
7.951325512e-08
3.371076396e-11
0
0
1.456604959e-13
1.416432582e-13
1.416155442e-13
1.415966639e-13
1.420335414e-13
1.419969889e-13
1.415126715e-13
1.459944587e-13
0
1.458161024e-13
1.42469003e-13
1.462985353e-13
0
0
0
0
0
0
0
0
0
0
0
0
0
1.421626768e-13
1.413773432e-13
1.413523623e-13
1.41331968e-13
1.413126406e-13
1.412938244e-13
1.412756478e-13
1.412579604e-13
1.41241255e-13
1.412239112e-13
1.409195099e-13
1.408959392e-13
1.406965414e-13
1.406815681e-13
1.406681192e-13
1.406551805e-13
1.406426003e-13
1.406306086e-13
1.406188914e-13
1.40607821e-13
1.405971956e-13
1.405869896e-13
1.405773855e-13
1.405679808e-13
1.405589313e-13
1.405507182e-13
1.407300487e-13
1.415828858e-13
0
0
2.182001348e-06
3.33951245e-07
9.255679839e-09
0
0
1.428196845e-13
1.403285888e-13
1.407198616e-13
1.458666713e-13
0
0
1.450642499e-13
1.403331104e-13
1.488140622e-13
0
1.455968706e-13
1.43060291e-13
0
1.495378913e-13
0
0
0
0
1.476456126e-13
1.443434727e-13
1.440064066e-13
1.437872338e-13
1.439357345e-13
1.441867073e-13
1.426783079e-13
0
0
0
0
0
0
0
0
0
0
0
0
1.401843112e-13
1.39803523e-13
1.397870238e-13
1.397718267e-13
1.394761848e-13
1.394570536e-13
1.392594088e-13
1.392462682e-13
1.39234552e-13
1.392241889e-13
1.393963611e-13
1.393901311e-13
1.393852928e-13
1.400216543e-13
0
0
1.435334726e-13
1.404092875e-13
5.488525085e-06
1.957237954e-07
2.041861396e-08
0
1.486028317e-13
0
0
0
0
0
0
0
1.711185631e-13
1.547951302e-13
0
1.688433407e-13
0
1.450629631e-13
0
0
0
0
1.469025438e-13
0
0
0
1.423296004e-13
0
0
0
0
1.450023736e-13
1.446053889e-13
0
0
0
0
0
1.445207129e-13
1.43570783e-13
1.417710602e-13
0
0
0
0
0
0
0
1.398934782e-13
1.394166742e-13
1.394074984e-13
1.398108876e-13
0
0
0
0
0
0
0
0
1.967577884e-05
1.95329766e-06
2.014379986e-07
1.487296086e-08
2.417550504e-09
9.719580356e-10
7.110379924e-10
6.063882218e-10
4.977684406e-10
3.611412506e-10
2.028552568e-10
4.143752232e-11
0
0
0
0
0
0
0
0
0
0
0
0
0
0
0
0
0
0
0
0
0
0
0
0
0
0
0
0
0
0
0
0
0
0
0
0
0
0
0
0
0
0
0
0
0
0
0
0
3.330264423e-05
6.622970613e-06
8.949969631e-07
1.270251136e-07
2.550406506e-08
1.433204563e-08
1.210125489e-08
1.127200824e-08
1.076804002e-08
1.036079429e-08
9.996639349e-09
9.672215696e-09
9.399805332e-09
9.178812384e-09
8.97524221e-09
8.716400598e-09
8.256727815e-09
7.598923636e-09
6.935596497e-09
6.383505081e-09
5.983104329e-09
5.709267524e-09
5.516318484e-09
5.368065444e-09
5.244181259e-09
5.135013751e-09
5.036285981e-09
4.945968318e-09
4.862769468e-09
4.785797559e-09
4.714277621e-09
4.647630577e-09
4.585475294e-09
4.527388662e-09
4.4728317e-09
4.421645227e-09
4.373458862e-09
4.327726729e-09
4.284152031e-09
4.242882038e-09
4.203833142e-09
4.166658269e-09
4.131470384e-09
4.098199644e-09
4.066638796e-09
4.036614895e-09
4.007975902e-09
3.980590319e-09
3.954289421e-09
3.929546132e-09
3.905928345e-09
3.88360629e-09
3.861318119e-09
3.83932148e-09
3.813302663e-09
3.781810353e-09
3.746947341e-09
3.765466115e-09
3.996845156e-09
4.347568002e-09
3.080516383e-05
1.914691226e-05
3.176257978e-06
7.008540486e-07
9.649259768e-08
3.394622487e-08
2.548435153e-08
2.328219489e-08
2.230404169e-08
2.168395812e-08
2.120781595e-08
2.081678797e-08
2.049319528e-08
2.021404079e-08
1.992462477e-08
1.953431945e-08
1.887494008e-08
1.795184133e-08
1.69955353e-08
1.617197526e-08
1.555681262e-08
1.512791995e-08
1.482330998e-08
1.458914151e-08
1.439387809e-08
1.422208551e-08
1.406684738e-08
1.392484061e-08
1.379393558e-08
1.367271394e-08
1.355996145e-08
1.345475267e-08
1.335641342e-08
1.326430612e-08
1.317767363e-08
1.309618575e-08
1.301930794e-08
1.294644474e-08
1.287720816e-08
1.281165949e-08
1.274962103e-08
1.269057078e-08
1.263455384e-08
1.258140393e-08
1.253077364e-08
1.248268762e-08
1.243695737e-08
1.239338018e-08
1.235152318e-08
1.231184379e-08
1.227380006e-08
1.223776525e-08
1.220176502e-08
1.216576737e-08
1.212369004e-08
1.207471087e-08
1.202834092e-08
1.206902169e-08
1.234002277e-08
1.268122721e-08
2.411172063e-05
3.113990823e-05
8.978675369e-06
1.964734972e-06
4.18690607e-07
7.524204163e-08
3.847108301e-08
3.230638412e-08
3.045558767e-08
2.960300316e-08
2.9076669e-08
2.868380066e-08
2.835269964e-08
2.803357997e-08
2.766070785e-08
2.714864516e-08
2.635765847e-08
2.530679775e-08
2.421281906e-08
2.324941453e-08
2.250980849e-08
2.198453097e-08
2.161060876e-08
2.132627277e-08
2.109240604e-08
2.088907847e-08
2.070682349e-08
2.05409382e-08
2.038859462e-08
2.024787005e-08
2.011719588e-08
1.999539094e-08
1.988155701e-08
1.977487092e-08
1.967452711e-08
1.958003331e-08
1.949082064e-08
1.940636313e-08
1.932626634e-08
1.925038783e-08
1.91784727e-08
1.911004581e-08
1.904503187e-08
1.898320482e-08
1.892423431e-08
1.886809962e-08
1.881462468e-08
1.876370457e-08
1.871495845e-08
1.866842199e-08
1.86236562e-08
1.858079225e-08
1.853778894e-08
1.849309859e-08
1.843897673e-08
1.836924633e-08
1.828417738e-08
1.823209938e-08
1.827987726e-08
1.83804109e-08
1.893034136e-05
3.143203652e-05
1.956849816e-05
5.861427948e-06
1.687274781e-06
2.70028411e-07
6.294048401e-08
4.003002603e-08
3.552328054e-08
3.409619308e-08
3.345855046e-08
3.307032182e-08
3.275128665e-08
3.241040178e-08
3.197059364e-08
3.135571703e-08
3.046170863e-08
2.932553222e-08
2.814363156e-08
2.707997193e-08
2.623693523e-08
2.562155547e-08
2.517912784e-08
2.484592684e-08
2.457683648e-08
2.434700442e-08
2.414385992e-08
2.396075923e-08
2.379387074e-08
2.364052972e-08
2.349873338e-08
2.336701966e-08
2.324418266e-08
2.312924877e-08
2.302133314e-08
2.29197853e-08
2.282400335e-08
2.273344619e-08
2.264768893e-08
2.256642665e-08
2.248934295e-08
2.241604235e-08
2.234632685e-08
2.227997293e-08
2.221673853e-08
2.215647035e-08
2.209896019e-08
2.204407957e-08
2.199158681e-08
2.194134279e-08
2.189293823e-08
2.184601402e-08
2.179839771e-08
2.174656234e-08
2.16804024e-08
2.158660884e-08
2.145143109e-08
2.128340731e-08
2.111406167e-08
2.102757927e-08
1.496644754e-05
2.697760621e-05
2.991012368e-05
1.296099422e-05
4.488774356e-06
1.121869091e-06
1.45565603e-07
5.202875066e-08
3.962008876e-08
3.673837826e-08
3.578783347e-08
3.53561966e-08
3.504460839e-08
3.469362393e-08
3.420853285e-08
3.351963007e-08
3.254886539e-08
3.134660045e-08
3.009683642e-08
2.895295503e-08
2.801773767e-08
2.731175083e-08
2.67932205e-08
2.640209284e-08
2.609039768e-08
2.582884291e-08
2.560138096e-08
2.539906538e-08
2.521650542e-08
2.505006845e-08
2.489715854e-08
2.475583821e-08
2.462458408e-08
2.450219344e-08
2.438763841e-08
2.428011866e-08
2.417892658e-08
2.408346695e-08
2.399323734e-08
2.390782474e-08
2.38268551e-08
2.374995259e-08
2.367683778e-08
2.360725564e-08
2.354097959e-08
2.34778153e-08
2.341755367e-08
2.336001122e-08
2.330496243e-08
2.325220087e-08
2.320125593e-08
2.315130269e-08
2.30997667e-08
2.304123043e-08
2.296347872e-08
2.284800708e-08
2.267283651e-08
2.242835332e-08
2.214540672e-08
2.198312871e-08
1.174352618e-05
2.197201881e-05
3.298634864e-05
2.236007526e-05
9.495973039e-06
2.926645302e-06
4.698442404e-07
8.213395395e-08
4.514799699e-08
3.884769116e-08
3.723144769e-08
3.667396344e-08
3.63495326e-08
3.598995161e-08
3.547402608e-08
3.473451226e-08
3.370996378e-08
3.245937834e-08
3.115929014e-08
2.995326547e-08
2.894082773e-08
2.815107753e-08
2.755492569e-08
2.709978495e-08
2.673843422e-08
2.643900108e-08
2.618243297e-08
2.595735555e-08
2.575656574e-08
2.557520107e-08
2.54098265e-08
2.525791958e-08
2.511756576e-08
2.498725876e-08
2.486578216e-08
2.475215193e-08
2.464553611e-08
2.454524201e-08
2.445067496e-08
2.436133537e-08
2.427678002e-08
2.419661203e-08
2.41204944e-08
2.404813121e-08
2.397926499e-08
2.391366856e-08
2.385112712e-08
2.379143086e-08
2.373433608e-08
2.367955536e-08
2.362649338e-08
2.357388032e-08
2.351852908e-08
2.345348983e-08
2.336502589e-08
2.323233692e-08
2.303184883e-08
2.275164275e-08
2.243267387e-08
2.22635282e-08
9.20668202e-06
1.743709467e-05
2.927366442e-05
3.32351985e-05
1.696992077e-05
6.134760378e-06
1.382605985e-06
1.752730362e-07
5.626053057e-08
4.134254086e-08
3.838275458e-08
3.758589176e-08
3.722551953e-08
3.685518862e-08
3.631756167e-08
3.554506071e-08
3.448663877e-08
3.320598869e-08
3.187366465e-08
3.062413637e-08
2.955197585e-08
2.869088032e-08
2.802213707e-08
2.750200063e-08
2.708695843e-08
2.674495177e-08
2.64551436e-08
2.620409391e-08
2.598275913e-08
2.578482918e-08
2.560582268e-08
2.5442493e-08
2.529242457e-08
2.515376473e-08
2.502504915e-08
2.490509587e-08
2.479292776e-08
2.468772912e-08
2.458880785e-08
2.449557564e-08
2.440752113e-08
2.432420125e-08
2.424523004e-08
2.417026956e-08
2.409902518e-08
2.403123087e-08
2.39666474e-08
2.390503599e-08
2.384611614e-08
2.378950462e-08
2.373442981e-08
2.367917438e-08
2.361983347e-08
2.35482644e-08
2.344982609e-08
2.330361895e-08
2.308806018e-08
2.279545757e-08
2.247655931e-08
2.232894774e-08
7.267115297e-06
1.416955713e-05
2.456509958e-05
4.070491479e-05
2.726867835e-05
1.094005898e-05
2.94111218e-06
3.754959955e-07
7.665854985e-08
4.437500869e-08
3.937490404e-08
3.828483363e-08
3.788069827e-08
3.749635192e-08
3.694078681e-08
3.614758698e-08
3.507333923e-08
3.378227743e-08
3.243783489e-08
3.116521351e-08
3.005289047e-08
2.91364293e-08
2.84050632e-08
2.782371207e-08
2.73543518e-08
2.696696237e-08
2.664060013e-08
2.636066745e-08
2.611658362e-08
2.590055608e-08
2.570689357e-08
2.553146051e-08
2.537122277e-08
2.52239019e-08
2.508773503e-08
2.496131883e-08
2.484350929e-08
2.473335698e-08
2.463006285e-08
2.453294933e-08
2.444143437e-08
2.435501913e-08
2.427326908e-08
2.419580279e-08
2.412228621e-08
2.405241454e-08
2.398591707e-08
2.392251675e-08
2.386187545e-08
2.380348691e-08
2.37463485e-08
2.368827264e-08
2.362461323e-08
2.354631446e-08
2.343839074e-08
2.328104152e-08
2.305597885e-08
2.276134985e-08
2.245527623e-08
2.233873419e-08
5.841940883e-06
1.184396058e-05
2.110925606e-05
4.189916986e-05
4.016114345e-05
1.756255016e-05
5.035423058e-06
7.485772238e-07
1.098072218e-07
4.800277308e-08
4.017197338e-08
3.88007655e-08
3.836168016e-08
3.796076986e-08
3.738840207e-08
3.658285561e-08
3.550698209e-08
3.422495171e-08
3.289069525e-08
3.161838286e-08
3.048890812e-08
2.953752702e-08
2.87589567e-08
2.812579674e-08
2.760616223e-08
2.717369639e-08
2.680911306e-08
2.649803208e-08
2.62291303e-08
2.599343124e-08
2.57840344e-08
2.559580213e-08
2.542495873e-08
2.526870499e-08
2.512491547e-08
2.499192887e-08
2.486841167e-08
2.475326976e-08
2.464559053e-08
2.45446043e-08
2.444965494e-08
2.436018185e-08
2.427569916e-08
2.419578035e-08
2.412005005e-08
2.404816647e-08
2.39798225e-08
2.391469497e-08
2.385236958e-08
2.379218073e-08
2.373283929e-08
2.367166674e-08
2.360331165e-08
2.351805711e-08
2.340103087e-08
2.323408721e-08
2.300254002e-08
2.27102505e-08
2.242073835e-08
2.233870078e-08
4.74763936e-06
1.007684349e-05
1.847111289e-05
3.842682474e-05
5.387724685e-05
2.551381488e-05
7.615424699e-06
1.492278454e-06
1.638375621e-07
5.293369071e-08
4.084283842e-08
3.91302034e-08
3.865152479e-08
3.823039522e-08
3.764306556e-08
3.683339536e-08
3.57691326e-08
3.451393932e-08
3.32118943e-08
3.196481342e-08
3.084466636e-08
2.98833595e-08
2.907895868e-08
2.840999568e-08
2.785035046e-08
2.737810313e-08
2.697701355e-08
2.663443084e-08
2.633952341e-08
2.608288148e-08
2.585672153e-08
2.565496662e-08
2.547304903e-08
2.530757295e-08
2.515598763e-08
2.501633012e-08
2.488705013e-08
2.476689345e-08
2.465482544e-08
2.454997935e-08
2.4451621e-08
2.435912225e-08
2.427194222e-08
2.418960842e-08
2.411170417e-08
2.403785185e-08
2.396769983e-08
2.390086685e-08
2.383684143e-08
2.377476354e-08
2.371301575e-08
2.364842443e-08
2.357500933e-08
2.348263166e-08
2.335687638e-08
2.31815089e-08
2.294540543e-08
2.265752341e-08
2.238551493e-08
2.233920115e-08
3.917437444e-06
8.764590956e-06
1.68950367e-05
3.598036067e-05
6.698712858e-05
3.272992656e-05
9.983101464e-06
2.397164278e-06
2.61500647e-07
6.105554833e-08
4.155668366e-08
3.930568472e-08
3.874463694e-08
3.828501558e-08
3.767897058e-08
3.687030353e-08
3.582911848e-08
3.461680547e-08
3.336862329e-08
3.21722254e-08
3.108853785e-08
3.014489611e-08
2.934027847e-08
2.865703426e-08
2.807372667e-08
2.757277781e-08
2.714164272e-08
2.677055727e-08
2.645049598e-08
2.61727152e-08
2.592925463e-08
2.571344729e-08
2.552005152e-08
2.534508429e-08
2.518553969e-08
2.503912085e-08
2.490403563e-08
2.47788524e-08
2.466240342e-08
2.45537184e-08
2.445197974e-08
2.435648882e-08
2.426664717e-08
2.418193494e-08
2.410189408e-08
2.402610771e-08
2.395417042e-08
2.388562719e-08
2.381984473e-08
2.375573962e-08
2.369134126e-08
2.362299729e-08
2.354420306e-08
2.344462989e-08
2.331057739e-08
2.312783492e-08
2.288867609e-08
2.260641507e-08
2.235185018e-08
2.234028643e-08
3.518928624e-06
8.223640527e-06
1.734628047e-05
4.034919658e-05
7.973804053e-05
3.538343512e-05
1.066125535e-05
2.823680559e-06
3.916212451e-07
7.585364429e-08
4.28582801e-08
3.941999892e-08
3.865541181e-08
3.812124534e-08
3.748784072e-08
3.668345604e-08
3.567496246e-08
3.452231022e-08
3.334677577e-08
3.222245546e-08
3.119952625e-08
3.029970066e-08
2.952055439e-08
2.884632836e-08
2.825895824e-08
2.774452087e-08
2.729405193e-08
2.690113142e-08
2.655946626e-08
2.626207431e-08
2.600175246e-08
2.577186275e-08
2.556682233e-08
2.538220265e-08
2.521458466e-08
2.506133938e-08
2.492042179e-08
2.479021138e-08
2.466939751e-08
2.455689942e-08
2.445181127e-08
2.43533631e-08
2.426089733e-08
2.417384456e-08
2.409170265e-08
2.401400859e-08
2.394029427e-08
2.387001361e-08
2.380238507e-08
2.373607822e-08
2.366876044e-08
2.359633451e-08
2.351189286e-08
2.340512802e-08
2.32632468e-08
2.307411111e-08
2.283317464e-08
2.255739231e-08
2.231981824e-08
2.234067174e-08
3.949690103e-06
9.798659354e-06
2.483835577e-05
8.103627158e-05
8.426143717e-05
3.073650496e-05
9.17616322e-06
2.59175573e-06
5.15313078e-07
1.0027891e-07
4.578275751e-08
3.960557768e-08
3.840474201e-08
3.775304246e-08
3.708696847e-08
3.629560921e-08
3.533196663e-08
3.42519893e-08
3.316321614e-08
3.212711207e-08
3.118373294e-08
3.034824255e-08
2.961574098e-08
2.897107795e-08
2.839838575e-08
2.788644244e-08
2.742917459e-08
2.70232682e-08