/*--------------------------------*- C++ -*----------------------------------*\
  =========                 |
  \\      /  F ield         | OpenFOAM: The Open Source CFD Toolbox
   \\    /   O peration     | Website:  https://openfoam.org
    \\  /    A nd           | Version:  10
     \\/     M anipulation  |
\*---------------------------------------------------------------------------*/
FoamFile
{
    format      ascii;
    class       volScalarField;
    location    "0.02499901733";
    object      HO2_0;
}
// * * * * * * * * * * * * * * * * * * * * * * * * * * * * * * * * * * * * * //

dimensions      [0 0 0 0 0 0 0];

internalField   nonuniform List<scalar> 
5170
(
8.392471655e-09
8.377754847e-09
8.280712511e-09
7.59375845e-09
5.889650563e-10
1.683796185e-08
1.679200904e-08
1.658560953e-08
1.553348626e-08
9.569398046e-09
2.522920777e-08
2.5152764e-08
2.485056241e-08
2.35935012e-08
1.865302167e-08
3.354596122e-08
3.344216864e-08
3.306772286e-08
3.172644665e-08
2.778867283e-08
4.178727082e-08
4.1660594e-08
4.124047455e-08
3.991366217e-08
3.696452503e-08
4.994865475e-08
4.98073784e-08
4.936972944e-08
4.814879177e-08
4.618224035e-08
5.803004905e-08
5.788155747e-08
5.745411108e-08
5.642944716e-08
5.54399614e-08
6.603740779e-08
6.589191336e-08
6.550072189e-08
6.474755922e-08
6.473342812e-08
7.397591695e-08
7.38419671e-08
7.351524464e-08
7.310452532e-08
7.40588217e-08
8.18549316e-08
8.173857179e-08
8.149530105e-08
8.150483272e-08
8.341643959e-08
8.968096951e-08
8.958833719e-08
8.944470045e-08
8.995068097e-08
9.280348176e-08
9.745634599e-08
9.739508696e-08
9.738435313e-08
9.844068298e-08
1.022115448e-07
1.051861386e-07
1.051640752e-07
1.053246742e-07
1.069777149e-07
1.11634663e-07
1.128757362e-07
1.129010238e-07
1.132676469e-07
1.155643657e-07
1.210678923e-07
1.205294461e-07
1.206119985e-07
1.212173022e-07
1.241990175e-07
1.305041516e-07
1.281489274e-07
1.282997441e-07
1.291886038e-07
1.328861016e-07
1.399241152e-07
1.357375826e-07
1.359690298e-07
1.371759011e-07
1.416109933e-07
1.493375265e-07
1.43299064e-07
1.436262984e-07
1.452051781e-07
1.503861616e-07
1.587134764e-07
1.508361568e-07
1.512772979e-07
1.532891125e-07
1.592341534e-07
1.681226116e-07
1.584016702e-07
1.591728983e-07
1.626469908e-07
1.74322317e-07
2.01724204e-07
3.004115442e-06
3.006591715e-06
3.005696327e-06
3.010040648e-06
3.018443084e-06
2.349165267e-06
2.443081322e-06
2.444712004e-06
2.422909437e-06
2.295229346e-06
1.801027746e-06
1.939060509e-06
1.939571114e-06
1.897286292e-06
1.729033742e-06
1.512986493e-06
1.624817556e-06
1.628404229e-06
1.569432202e-06
1.419667786e-06
1.326293649e-06
1.422136144e-06
1.430425777e-06
1.382080321e-06
1.259019128e-06
1.22638716e-06
1.307700601e-06
1.315732963e-06
1.266987225e-06
1.181441479e-06
1.157162992e-06
1.224538962e-06
1.228679792e-06
1.20533446e-06
1.146541082e-06
1.145598124e-06
1.170320513e-06
1.176858959e-06
1.149789105e-06
1.157678978e-06
1.157992755e-06
1.146959703e-06
1.145485767e-06
1.154875404e-06
1.105413258e-06
1.11097785e-06
1.155721044e-06
1.155145973e-06
1.127760579e-06
1.080421384e-06
1.084354832e-06
1.118540506e-06
1.121447095e-06
1.098749775e-06
1.080271491e-06
1.080414276e-06
1.092350455e-06
1.095575643e-06
1.080381735e-06
1.073550426e-06
1.073084147e-06
1.079449969e-06
1.078264771e-06
1.076798103e-06
1.069218401e-06
1.068661294e-06
1.074479129e-06
1.075075177e-06
1.071428507e-06
1.063952359e-06
1.064077084e-06
1.069928917e-06
1.070475525e-06
1.066408158e-06
1.058569759e-06
1.05931781e-06
1.065630194e-06
1.06608264e-06
1.061367564e-06
1.053230379e-06
1.054655682e-06
1.061103091e-06
1.061446703e-06
1.056193724e-06
1.047903871e-06
1.050397492e-06
1.056447163e-06
1.056526331e-06
1.050949439e-06
1.042584008e-06
1.055701061e-06
1.053547529e-06
1.051810089e-06
1.045815552e-06
1.037493886e-06
2.136612349e-06
1.182241695e-06
1.07758413e-06
1.055231157e-06
1.034098649e-06
1.663036136e-07
1.726563093e-07
2.695897657e-07
1.671795275e-06
1.448588237e-05
1.770031459e-07
2.023636403e-07
5.258367752e-07
3.779756604e-06
2.061738668e-05
1.937720017e-07
2.63189332e-07
9.932020325e-07
5.843353997e-06
2.244743364e-05
2.213167204e-07
3.684950688e-07
1.637402661e-06
7.694658031e-06
2.211977647e-05
2.684879446e-07
5.508583572e-07
2.612227192e-06
9.178252984e-06
2.065339097e-05
3.438775213e-07
8.129478662e-07
3.471737796e-06
1.016888518e-05
1.898794406e-05
4.58542784e-07
1.16503703e-06
4.3585606e-06
1.076922807e-05
1.773605719e-05
6.289082097e-07
1.633332661e-06
5.215409896e-06
1.1142961e-05
1.692885929e-05
8.836398747e-07
2.263824663e-06
5.994422947e-06
1.124862761e-05
1.584601785e-05
1.229970473e-06
2.894970952e-06
6.65110005e-06
1.117704924e-05
1.478515724e-05
1.69576704e-06
3.597840326e-06
7.183381518e-06
1.10408371e-05
1.397044502e-05
2.351292889e-06
4.337444046e-06
7.600514592e-06
1.087296583e-05
1.323855427e-05
3.146212305e-06
5.06377757e-06
7.910407231e-06
1.059800703e-05
1.235493209e-05
4.08691249e-06
5.772657167e-06
8.155739202e-06
1.031858515e-05
1.161187635e-05
5.120956897e-06
6.470411128e-06
8.37144147e-06
1.004405478e-05
1.090682825e-05
6.1272103e-06
7.139469056e-06
8.589719364e-06
9.808363544e-06
1.034118203e-05
7.130645522e-06
7.833863438e-06
8.885783179e-06
9.760155536e-06
1.007953627e-05
8.110997233e-06
8.595029719e-06
9.363474272e-06
9.95955351e-06
1.015924694e-05
9.087451986e-06
9.422524118e-06
9.956057402e-06
1.039582993e-05
1.073606291e-05
1.015424274e-05
1.037287092e-05
1.073234003e-05
1.11243311e-05
1.172288449e-05
1.180553025e-05
1.201354964e-05
1.244604731e-05
1.312071266e-05
1.420506121e-05
1.47318246e-05
1.502014924e-05
1.568052275e-05
1.67539694e-05
1.834237351e-05
1.770541078e-05
1.799282402e-05
1.863652547e-05
1.963872856e-05
2.101307811e-05
1.846524564e-05
1.862773683e-05
1.897876298e-05
1.949019949e-05
2.012806028e-05
1.656773535e-05
1.660554322e-05
1.667483079e-05
1.675475743e-05
1.682287816e-05
1.330704974e-05
1.328087629e-05
1.321305606e-05
1.309579068e-05
1.292217364e-05
1.015544425e-05
1.011456292e-05
1.001682463e-05
9.86190259e-06
9.650960472e-06
7.559185307e-06
7.521892513e-06
7.435086154e-06
7.300933829e-06
7.122679044e-06
5.605747312e-06
5.577343789e-06
5.512103213e-06
5.412506372e-06
5.281956135e-06
4.194948366e-06
4.175048726e-06
4.129046368e-06
4.058989586e-06
3.967294715e-06
3.207388201e-06
3.194727239e-06
3.164747962e-06
3.117654821e-06
3.055679258e-06
2.52885805e-06
2.51943465e-06
2.498139423e-06
2.465986755e-06
2.424003961e-06
2.061195641e-06
2.054723953e-06
2.040215929e-06
2.018327515e-06
1.989795198e-06
1.741249229e-06
1.736671353e-06
1.726460635e-06
1.711055922e-06
1.690836202e-06
1.522974302e-06
1.519500635e-06
1.5118136e-06
1.500246345e-06
1.485073368e-06
1.37067036e-06
1.368012645e-06
1.362176723e-06
1.353377514e-06
1.341954807e-06
1.264983247e-06
1.262757346e-06
1.257903111e-06
1.250624564e-06
1.241041385e-06
1.184870272e-06
1.182997809e-06
1.178948298e-06
1.172910538e-06
1.164984581e-06
1.124716391e-06
1.123053906e-06
1.119478493e-06
1.114162649e-06
1.107183197e-06
1.074469034e-06
1.072930238e-06
1.069564815e-06
1.064556489e-06
1.057920738e-06
1.029760827e-06
1.028328668e-06
1.025171477e-06
1.020467408e-06
1.014179415e-06
9.883340804e-07
9.869511652e-07
9.839889067e-07
9.795901107e-07
9.738133794e-07
9.521471535e-07
9.508181601e-07
9.479720639e-07
9.437406111e-07
9.381675423e-07
9.167857536e-07
9.155071781e-07
9.127691478e-07
9.087001585e-07
9.032821792e-07
8.82121297e-07
8.809146641e-07
8.783295858e-07
8.744803441e-07
8.693983284e-07
8.502616352e-07
8.490954978e-07
8.465981907e-07
8.428856767e-07
8.379956552e-07
8.201460099e-07
8.190537901e-07
8.166977679e-07
8.132002628e-07
8.086082924e-07
7.960996365e-07
7.950398013e-07
7.9277137e-07
7.893966273e-07
7.849480859e-07
7.735330642e-07
7.72498739e-07
7.702875726e-07
7.670011221e-07
7.626703401e-07
7.531670791e-07
7.521747487e-07
7.500713495e-07
7.469780836e-07
7.42827154e-07
7.361828164e-07
7.352194961e-07
7.331570339e-07
7.300939942e-07
7.260600074e-07
7.203896895e-07
7.194355153e-07
7.173984628e-07
7.143746425e-07
7.103903153e-07
7.051436952e-07
7.042055034e-07
7.022027813e-07
6.992310706e-07
6.953230277e-07
6.909501226e-07
6.900689099e-07
6.881928182e-07
6.854176398e-07
6.81739359e-07
6.798535653e-07
6.789891611e-07
6.771449073e-07
6.744065682e-07
6.70799049e-07
6.702970188e-07
6.69445499e-07
6.676301097e-07
6.649403142e-07
6.613967024e-07
6.623878493e-07
6.615329671e-07
6.597091216e-07
6.570039033e-07
6.534439179e-07
6.559559373e-07
6.550941703e-07
6.532546332e-07
6.505234603e-07
6.469274605e-07
6.510347429e-07
6.501761258e-07
6.483448305e-07
6.456291035e-07
6.420600471e-07
6.469563196e-07
6.461097686e-07
6.443046739e-07
6.416277654e-07
6.381081309e-07
6.413657139e-07
6.40547107e-07
6.388035359e-07
6.36222756e-07
6.328384541e-07
6.326461943e-07
6.318834433e-07
6.302583688e-07
6.278519421e-07
6.246967809e-07
6.191049288e-07
6.18417746e-07
6.169522356e-07
6.14779034e-07
6.119149061e-07
6.020893801e-07
6.014209514e-07
5.99980531e-07
5.978228754e-07
5.949531363e-07
5.783654752e-07
5.776981869e-07
5.762659031e-07
5.741316442e-07
5.713162582e-07
5.535153913e-07
5.528910184e-07
5.51558443e-07
5.49586221e-07
5.469996812e-07
5.343626336e-07
5.337678286e-07
5.324930242e-07
5.305972721e-07
5.28102617e-07
5.235258669e-07
5.229663898e-07
5.217708692e-07
5.199960101e-07
5.176613753e-07
5.204954122e-07
5.199615093e-07
5.188246067e-07
5.17139189e-07
5.149182999e-07
5.204094538e-07
5.198697875e-07
5.187198147e-07
5.170166339e-07
5.147789959e-07
2.815290803e-05
3.014604988e-05
2.752123829e-05
2.475274431e-05
2.21786885e-05
2.007667669e-05
1.870273321e-05
1.782397778e-05
1.632104377e-05
1.497290854e-05
1.406687393e-05
1.32421345e-05
1.227155029e-05
1.14924968e-05
1.07516069e-05
1.020911552e-05
1.003734386e-05
1.023238292e-05
1.120201968e-05
1.254217647e-05
1.536522913e-05
1.980128598e-05
2.216174653e-05
2.061406087e-05
1.686550452e-05
1.278706577e-05
9.492896768e-06
6.990455807e-06
5.185484404e-06
3.899235114e-06
3.009339803e-06
2.392506174e-06
1.967840795e-06
1.675500634e-06
1.47317162e-06
1.333037607e-06
1.233224957e-06
1.15844696e-06
1.101251975e-06
1.05232532e-06
1.008855889e-06
9.68946625e-07
9.334397068e-07
8.986903927e-07
8.650824352e-07
8.338373586e-07
8.047246812e-07
7.811630708e-07
7.589777363e-07
7.39298092e-07
7.226190998e-07
7.069821466e-07
6.919894961e-07
6.785999699e-07
6.677101897e-07
6.583461769e-07
6.503924214e-07
6.438503498e-07
6.390105539e-07
6.350975732e-07
6.299518799e-07
6.22012606e-07
6.094609765e-07
5.924944813e-07
5.689280114e-07
5.447927792e-07
5.259933612e-07
5.156721402e-07
5.130023136e-07
5.128612564e-07
1.156033203e-05
3.352162236e-06
3.358335246e-06
1.85615582e-06
2.944962385e-06
1.446146296e-05
1.933906456e-05
5.655176358e-06
6.22973821e-06
9.480282452e-06
1.627957552e-05
1.740548123e-05
4.478475997e-06
1.038949811e-05
2.082554572e-05
1.672123214e-05
1.434131692e-05
4.655617075e-06
1.07264982e-05
2.393385035e-05
1.694881767e-05
1.375508077e-05
1.035840435e-05
9.006728914e-06
1.992901466e-05
1.659018614e-05
1.40713937e-05
1.488456443e-05
7.127124365e-06
1.577379108e-05
1.623212049e-05
1.443458905e-05
1.638858865e-05
5.507246446e-06
1.197329769e-05
1.589450839e-05
1.403789283e-05
1.541885927e-05
4.63218675e-06
9.093041445e-06
1.471815345e-05
1.322766099e-05
1.436368007e-05
6.288303904e-06
7.128439815e-06
1.357446651e-05
1.271814681e-05
1.392274988e-05
7.871797584e-06
5.543094798e-06
1.286782311e-05
1.250318774e-05
1.375918251e-05
9.055296963e-06
4.326054565e-06
1.224919727e-05
1.22665556e-05
1.356770194e-05
1.00402376e-05
3.653168779e-06
1.160359286e-05
1.224815285e-05
1.325566818e-05
1.093773906e-05
4.192996609e-06
1.093874391e-05
1.194741864e-05
1.302312122e-05
1.15265809e-05
5.092928994e-06
1.033552533e-05
1.163340091e-05
1.292073936e-05
1.18880628e-05
5.869731863e-06
9.955587081e-06
1.142710279e-05
1.287172223e-05
1.218825452e-05
6.636240935e-06
1.000325356e-05
1.158226741e-05
1.302821143e-05
1.252204288e-05
7.198907919e-06
1.041857553e-05
1.217794148e-05
1.379541698e-05
1.320563219e-05
7.456602166e-06
1.208095194e-05
1.462441285e-05
1.80349221e-05
1.951907249e-05
9.322102427e-06
1.403258758e-05
1.900238653e-05
2.667727808e-05
4.084355603e-05
6.500996414e-05
1.724726898e-05
2.318014121e-05
3.398321968e-05
5.177474862e-05
7.86537832e-05
2.202056218e-05
2.778934351e-05
3.659636444e-05
4.808837617e-05
5.921323255e-05
2.391579116e-05
2.734595881e-05
3.10322052e-05
3.401303343e-05
3.494998723e-05
2.142320705e-05
2.248872337e-05
2.303106043e-05
2.270801271e-05
2.129930373e-05
1.703378625e-05
1.693381501e-05
1.636456294e-05
1.529156874e-05
1.375699554e-05
1.267867384e-05
1.221527983e-05
1.145325646e-05
1.044134556e-05
9.253393822e-06
9.328975544e-06
8.867133105e-06
8.223550013e-06
7.450202025e-06
6.60623592e-06
6.843796334e-06
6.478315967e-06
5.999238299e-06
5.448054158e-06
4.865906361e-06
5.07492737e-06
4.81429137e-06
4.474133426e-06
4.089709497e-06
3.688768926e-06
3.819324653e-06
3.635596315e-06
3.408974545e-06
3.150910324e-06
2.879835903e-06
2.953725863e-06
2.829303272e-06
2.675398583e-06
2.500502276e-06
2.315186946e-06
2.353762509e-06
2.26732861e-06
2.161206356e-06
2.044030507e-06
1.916878183e-06
1.939857488e-06
1.879519768e-06
1.805984297e-06
1.722154717e-06
1.632830023e-06
1.655251008e-06
1.611055047e-06
1.55730514e-06
1.497297527e-06
1.434143918e-06
1.456495514e-06
1.422951826e-06
1.383275902e-06
1.339872242e-06
1.292015497e-06
1.319985547e-06
1.293576136e-06
1.262327789e-06
1.22755183e-06
1.190240395e-06
1.221138328e-06
1.198627317e-06
1.173295532e-06
1.145874866e-06
1.116219088e-06
1.147963231e-06
1.129270915e-06
1.108075522e-06
1.083916678e-06
1.057334921e-06
1.091490084e-06
1.073922967e-06
1.05429192e-06
1.032333425e-06
1.008482224e-06
1.043003194e-06
1.0264805e-06
1.008062198e-06
9.879601296e-07
9.664959597e-07
9.999212595e-07
9.844201936e-07
9.675793956e-07
9.495980862e-07
9.299343586e-07
9.607158464e-07
9.467445662e-07
9.310848373e-07
9.13954183e-07
8.953043459e-07
9.254113582e-07
9.115603191e-07
8.964526056e-07
8.798860278e-07
8.620700717e-07
8.909201962e-07
8.77524156e-07
8.629912904e-07
8.473261306e-07
8.306751577e-07
8.577296113e-07
8.451376419e-07
8.314914557e-07
8.167027856e-07
8.010214603e-07
8.267495713e-07
8.146616163e-07
8.017303325e-07
7.879024287e-07
7.734004658e-07
7.980934639e-07
7.869451389e-07
7.752145286e-07
7.621667424e-07
7.479861773e-07
7.746675107e-07
7.636065719e-07
7.516887509e-07
7.388258066e-07
7.250929199e-07
7.526098481e-07
7.418061752e-07
7.302204821e-07
7.179842596e-07
7.047547103e-07
7.33189079e-07
7.227464697e-07
7.115442433e-07
6.995597494e-07
6.867763067e-07
7.166833364e-07
7.065728905e-07
6.957028397e-07
6.840447674e-07
6.716074002e-07
7.010751483e-07
6.910718591e-07
6.803561454e-07
6.689245226e-07
6.568579572e-07
6.862063524e-07
6.764952157e-07
6.66209826e-07
6.554019027e-07
6.440245098e-07
6.73127818e-07
6.639771189e-07
6.541631072e-07
6.43736352e-07
6.32678989e-07
6.623157168e-07
6.533631963e-07
6.437258269e-07
6.334686292e-07
6.225683128e-07
6.530298583e-07
6.440658989e-07
6.345190584e-07
6.243123161e-07
6.134262962e-07
6.450707319e-07
6.360745445e-07
6.264687795e-07
6.162371866e-07
6.054232105e-07
6.384830371e-07
6.29482362e-07
6.199351543e-07
6.09831329e-07
5.992371824e-07
6.33676236e-07
6.247581939e-07
6.153396406e-07
6.054097244e-07
5.950308179e-07
6.298261346e-07
6.210646773e-07
6.118690648e-07
6.022459723e-07
5.922625519e-07
6.248960691e-07
6.165410491e-07
6.078026588e-07
5.986639156e-07
5.892679513e-07
6.173347031e-07
6.095700583e-07
6.01343863e-07
5.927158906e-07
5.836558449e-07
6.051992055e-07
5.980568055e-07
5.904808892e-07
5.821898974e-07
5.731276491e-07
5.882640686e-07
5.810121175e-07
5.731486616e-07
5.646359843e-07
5.554943943e-07
5.648687594e-07
5.578739299e-07
5.502847042e-07
5.421295122e-07
5.335270101e-07
5.410658687e-07
5.345698783e-07
5.275390039e-07
5.199828347e-07
5.119821753e-07
5.224096024e-07
5.163188206e-07
5.098242308e-07
5.029282573e-07
4.956887433e-07
5.122225769e-07
5.064494389e-07
5.003654926e-07
4.939668063e-07
4.87246747e-07
5.096078662e-07
5.039600274e-07
4.980665263e-07
4.918423218e-07
4.85194044e-07
5.095084776e-07
5.038648617e-07
4.978851441e-07
4.915404983e-07
4.847887169e-07
1.059939144e-06
7.966126599e-08
3.129829415e-11
4.336444211e-13
4.36012859e-13
0
0
0
0
0
0
0
0
4.373983093e-13
0
0
0
4.353144004e-13
4.339555469e-13
4.337804316e-13
4.338182191e-13
4.338580817e-13
4.339000154e-13
4.34149183e-13
4.341886555e-13
4.342238033e-13
4.342578956e-13
4.342887687e-13
4.341437604e-13
0
0
0
0
0
0
0
0
0
0
0
0
0
0
0
0
0
0
0
0
0
0
0
0
0
0
0
0
0
4.351187938e-13
0
2.180219364e-06
3.345422624e-07
9.219748004e-09
4.179940205e-13
4.376297495e-13
0
0
0
0
4.389292884e-13
4.392389545e-13
0
0
0
4.409414988e-13
0
0
0
0
4.373397707e-13
4.35598765e-13
4.356489195e-13
4.373313048e-13
0
0
0
0
0
0
0
0
4.379447914e-13
4.380647027e-13
4.378508935e-13
4.379081535e-13
4.379352031e-13
4.379618532e-13
4.379554176e-13
4.382224576e-13
4.381371618e-13
0
0
0
0
0
0
0
0
0
0
0
0
0
0
0
0
0
4.385772145e-13
0
0
5.488222701e-06
1.966721642e-07
2.046327812e-08
0
0
0
0
3.7101321e-13
0
0
0
0
0
0
4.362374555e-13
0
0
0
0
4.349959035e-13
0
0
0
0
4.372284435e-13
0
0
0
4.377234289e-13
4.375283132e-13
0
0
0
0
4.361644002e-13
4.361648279e-13
4.361553093e-13
0
0
0
0
0
0
4.380026698e-13
4.381291567e-13
4.380733813e-13
0
0
0
0
0
0
0
0
0
4.382973578e-13
4.362056347e-13
4.063490955e-13
4.385043677e-13
4.386569121e-13
1.968985809e-05
1.955094589e-06
2.014616778e-07
1.490386912e-08
2.452603313e-09
1.006035464e-09
7.438779009e-10
6.380873391e-10
5.283648457e-10
3.906842979e-10
2.314373217e-10
6.870295881e-11
0
0
0
0
0
0
0
0
0
0
0
0
0
0
0
0
0
0
0
0
0
0
0
0
0
0
0
0
0
0
0
0
0
0
0
0
0
0
0
0
0
0
0
0
0
0
0
0
3.330655688e-05
6.624765199e-06
8.967384291e-07
1.272342381e-07
2.558039823e-08
1.440583333e-08
1.217437857e-08
1.134420534e-08
1.083920672e-08
1.043092945e-08
1.006584159e-08
9.740720482e-09
9.467639046e-09
9.246291877e-09
9.042749535e-09
8.783681117e-09
8.322264064e-09
7.66128517e-09
6.994897016e-09
6.440616876e-09
6.038931719e-09
5.764365275e-09
5.570922134e-09
5.422253776e-09
5.29798621e-09
5.188458906e-09
5.089394912e-09
4.998764082e-09
4.915272948e-09
4.83802734e-09
4.766250117e-09
4.699360526e-09
4.636976883e-09
4.578675219e-09
4.52391354e-09
4.472533865e-09
4.424164599e-09
4.378256993e-09
4.334513115e-09
4.293082524e-09
4.253881515e-09
4.216559851e-09
4.181232921e-09
4.14782998e-09
4.116143141e-09
4.085998334e-09
4.057244737e-09
4.029749308e-09
4.003342117e-09
3.978498654e-09
3.954784648e-09
3.932372159e-09
3.909993099e-09
3.887912987e-09
3.861806153e-09
3.830244123e-09
3.795415845e-09
3.814541202e-09
4.047834105e-09
4.400443408e-09
3.081378089e-05
1.914186061e-05
3.179032481e-06
7.015492611e-07
9.651683095e-08
3.400543971e-08
2.555617156e-08
2.335759322e-08
2.238066643e-08
2.17609609e-08
2.128484138e-08
2.089378203e-08
2.057033936e-08
2.029159978e-08
2.000272893e-08
1.961266191e-08
1.895246326e-08
1.802753172e-08
1.706944263e-08
1.62447821e-08
1.562921275e-08
1.520025924e-08
1.489564938e-08
1.466143967e-08
1.446609229e-08
1.429419673e-08
1.413885144e-08
1.399673764e-08
1.386572953e-08
1.374440729e-08
1.363155649e-08
1.352625165e-08
1.342781862e-08
1.333561984e-08
1.324889692e-08
1.316732113e-08
1.30903574e-08
1.301741007e-08
1.294809104e-08
1.28824626e-08
1.282034745e-08
1.276122188e-08
1.270513301e-08
1.265191301e-08
1.260121471e-08
1.255306263e-08
1.250726973e-08
1.246363214e-08
1.242171699e-08
1.23819808e-08
1.234388188e-08
1.230779354e-08
1.227174004e-08
1.223569103e-08
1.219355423e-08
1.214449328e-08
1.209800665e-08
1.21385939e-08
1.240948821e-08
1.2750296e-08
2.412117232e-05
3.115236091e-05
8.987971807e-06
1.969687918e-06
4.190381534e-07
7.52332254e-08
3.8513754e-08
3.236242303e-08
3.051634177e-08
2.966595486e-08
2.914074867e-08
2.874854963e-08
2.84180077e-08
2.809947035e-08
2.772709798e-08
2.721513821e-08
2.64233766e-08
2.53709977e-08
2.427563436e-08
2.331146794e-08
2.257174385e-08
2.204665161e-08
2.167293336e-08
2.138872162e-08
2.115491299e-08
2.095160776e-08
2.076936077e-08
2.060347749e-08
2.045113258e-08
2.031040276e-08
2.01797215e-08
2.005790728e-08
1.994406065e-08
1.983735984e-08
1.973699904e-08
1.96424864e-08
1.955325336e-08
1.946877432e-08
1.938865508e-08
1.931275334e-08
1.924081444e-08
1.917236299e-08
1.91073246e-08
1.904547282e-08
1.898647843e-08
1.893031961e-08
1.88768209e-08
1.882587644e-08
1.877710712e-08
1.87305467e-08
1.868575796e-08
1.864286945e-08
1.859984216e-08
1.85551228e-08
1.850095213e-08
1.843109809e-08
1.834570956e-08
1.829288033e-08
1.833928144e-08
1.843849759e-08
1.894033538e-05
3.145558154e-05
1.960007415e-05
5.881287618e-06
1.692197061e-06
2.696906099e-07
6.288491485e-08
4.005335531e-08
3.556389588e-08
3.414282836e-08
3.35079821e-08
3.312127432e-08
3.280323871e-08
3.246311845e-08
3.202380904e-08
3.140893705e-08
3.051408719e-08
2.937641151e-08
2.819312647e-08
2.712868016e-08
2.628548489e-08
2.567027756e-08
2.522805157e-08
2.489497472e-08
2.462594124e-08
2.439612923e-08
2.419299046e-08
2.400989285e-08
2.384300542e-08
2.368966394e-08
2.354786736e-08
2.34161522e-08
2.32933125e-08
2.317837441e-08
2.307045373e-08
2.296889983e-08
2.287311063e-08
2.278254556e-08
2.269677979e-08
2.261550817e-08
2.253841453e-08
2.246510337e-08
2.239537701e-08
2.232901166e-08
2.226576617e-08
2.220548674e-08
2.214796562e-08
2.209307324e-08
2.204056908e-08
2.19903131e-08
2.194189695e-08
2.189495951e-08
2.184733046e-08
2.179547323e-08
2.172926964e-08
2.163534731e-08
2.149983549e-08
2.133106633e-08
2.116055048e-08
2.107317213e-08
1.497375432e-05
2.699508548e-05
2.995883042e-05
1.299547337e-05
4.499802491e-06
1.11962691e-06
1.449955587e-07
5.197964284e-08
3.963741478e-08
3.677155558e-08
3.582713744e-08
3.539842145e-08
3.508842787e-08
3.473842214e-08
3.425385128e-08
3.356489812e-08
3.259324057e-08
3.138946725e-08
3.01383158e-08
2.899360179e-08
2.805815012e-08
2.735227134e-08
2.683391191e-08
2.644289008e-08
2.613122925e-08
2.586966925e-08
2.564218745e-08
2.543985047e-08
2.52572698e-08
2.509081406e-08
2.49378877e-08
2.479655227e-08
2.466528448e-08
2.454288085e-08
2.442831399e-08
2.432078285e-08
2.421958002e-08
2.412411009e-08
2.403387069e-08
2.394844866e-08
2.386746972e-08
2.379055809e-08
2.371743435e-08
2.364784339e-08
2.35815587e-08
2.35183859e-08
2.345811623e-08
2.34005658e-08
2.334550941e-08
2.329274015e-08
2.32417879e-08
2.319182648e-08
2.31402822e-08
2.30817309e-08
2.300394518e-08
2.288837361e-08
2.271296449e-08
2.24680162e-08
2.218447857e-08
2.202187988e-08
1.174558217e-05
2.198223225e-05
3.305066373e-05
2.242482665e-05
9.51934472e-06
2.92344426e-06
4.66848321e-07
8.184412815e-08
4.512290548e-08
3.886612892e-08
3.726337654e-08
3.671138133e-08
3.63894636e-08
3.603114142e-08
3.551576151e-08
3.477614216e-08
3.375065823e-08
3.249857713e-08
3.11971423e-08
2.999029443e-08
2.89775985e-08
2.818793412e-08
2.759194935e-08
2.713691681e-08
2.677559715e-08
2.647614868e-08
2.621954756e-08
2.599443405e-08
2.579360957e-08
2.56122134e-08
2.544681054e-08
2.529487831e-08
2.515450183e-08
2.502417447e-08
2.490267969e-08
2.478903294e-08
2.468240229e-08
2.458209465e-08
2.448751537e-08
2.439816451e-08
2.431359875e-08
2.423342119e-08
2.41572947e-08
2.40849232e-08
2.401604917e-08
2.39504453e-08
2.388789687e-08
2.3828194e-08
2.377109306e-08
2.371630655e-08
2.366323932e-08
2.361062091e-08
2.355526422e-08
2.349021475e-08
2.340172555e-08
2.326896766e-08
2.306833384e-08
2.278789473e-08
2.246872376e-08
2.229958197e-08
9.206109843e-06
1.744186928e-05
2.93253406e-05
3.334451467e-05
1.701166704e-05
6.120077769e-06
1.370804373e-06
1.738245636e-07
5.610321197e-08
4.133183411e-08
3.840569408e-08
3.761981672e-08
3.726355595e-08
3.689488627e-08
3.635783531e-08
3.558516508e-08
3.452575828e-08
3.324366956e-08
3.191008325e-08
3.065978192e-08
2.958737747e-08
2.872637089e-08
2.805780642e-08
2.753779578e-08
2.712279785e-08
2.678078156e-08
2.64909407e-08
2.62398522e-08
2.601847906e-08
2.582051337e-08
2.564147422e-08
2.547811506e-08
2.532802015e-08
2.518933661e-08
2.506059988e-08
2.494062768e-08
2.48284427e-08
2.472322894e-08
2.462429414e-08
2.453104973e-08
2.444298423e-08
2.435965441e-08
2.428067422e-08
2.420570557e-08
2.413445374e-08
2.406665257e-08
2.400206279e-08
2.394044557e-08
2.388152038e-08
2.3824904e-08
2.376982495e-08
2.371456559e-08
2.365522062e-08
2.358364363e-08
2.348518489e-08
2.33389279e-08
2.31232778e-08
2.283056482e-08
2.251163724e-08
2.236415535e-08
7.267435604e-06
1.417779133e-05
2.461491984e-05
4.088778164e-05
2.733455401e-05
1.091169935e-05
2.92073675e-06
3.703393546e-07
7.606895463e-08
4.430187577e-08
3.93851056e-08
3.831553274e-08
3.791762709e-08
3.75353641e-08
3.698038182e-08
3.61869457e-08
3.511168839e-08
3.381919777e-08
3.247356305e-08
3.120030549e-08
3.008780266e-08
2.917144708e-08
2.844027606e-08
2.785907106e-08
2.738977299e-08
2.70023854e-08
2.667599635e-08
2.639602755e-08
2.615190641e-08
2.593584319e-08
2.57421475e-08
2.556668403e-08
2.540641873e-08
2.525907305e-08
2.512288396e-08
2.499644792e-08
2.487862067e-08
2.476845255e-08
2.466514431e-08
2.456801816e-08
2.44764919e-08
2.439006655e-08
2.430830745e-08
2.423083305e-08
2.415730919e-08
2.408743093e-08
2.40209275e-08
2.395752181e-08
2.389687566e-08
2.383848281e-08
2.378134068e-08
2.37232615e-08
2.365959836e-08
2.358129203e-08
2.347334945e-08
2.33159592e-08
2.309083115e-08
2.279614544e-08
2.249010178e-08
2.237372843e-08
5.845384182e-06
1.185825897e-05
2.117409067e-05
4.220157359e-05
4.027135521e-05
1.750456773e-05
4.990729529e-06
7.304737165e-07
1.086125379e-07
4.781944484e-08
4.016556546e-08
3.882867431e-08
3.839788311e-08
3.79993033e-08
3.74274807e-08
3.662163794e-08
3.55447393e-08
3.426136019e-08
3.292602545e-08
3.165314346e-08
3.052360878e-08
2.957236169e-08
2.879400568e-08
2.816101233e-08
2.764145836e-08
2.720900668e-08
2.684440334e-08
2.653328972e-08
2.626435245e-08
2.60286186e-08
2.581918887e-08
2.563092611e-08
2.54600548e-08
2.530377578e-08
2.51599635e-08
2.502695651e-08
2.490342107e-08
2.478826289e-08
2.468056915e-08
2.457956997e-08
2.448460907e-08
2.439512569e-08
2.431063386e-08
2.423070689e-08
2.415496932e-08
2.408307922e-08
2.401472943e-08
2.394959673e-08
2.388726678e-08
2.382707395e-08
2.376772905e-08
2.370655336e-08
2.363819434e-08
2.355293169e-08
2.343588658e-08
2.326890576e-08
2.303730605e-08
2.274498355e-08
2.24555171e-08
2.237366074e-08
4.754959773e-06
1.009904654e-05
1.855781784e-05
3.882045124e-05
5.406120717e-05
2.537311824e-05
7.52049848e-06
1.453288424e-06
1.602643357e-07
5.254135727e-08
4.081420191e-08
3.915523751e-08
3.868695048e-08
3.826830582e-08
3.768148561e-08
3.68714992e-08
3.58062328e-08
3.45498042e-08
3.324683061e-08
3.19993193e-08
3.08792126e-08
2.99180799e-08
2.911392092e-08
2.844514878e-08
2.788560427e-08
2.741338471e-08
2.701228252e-08
2.666967057e-08
2.637472906e-08
2.611805279e-08
2.589185988e-08
2.569007411e-08
2.550812807e-08
2.534262608e-08
2.519101736e-08
2.505133884e-08
2.492204005e-08
2.480186657e-08
2.468978361e-08
2.458492421e-08
2.448655403e-08
2.439404477e-08
2.43068554e-08
2.42245133e-08
2.414660168e-08
2.407274282e-08
2.400258499e-08
2.393574692e-08
2.38717171e-08
2.380963537e-08
2.374788419e-08
2.368328969e-08
2.360987024e-08
2.351748362e-08
2.339170903e-08
2.321630663e-08
2.298015879e-08
2.269225639e-08
2.242029471e-08
2.237416607e-08
3.93080627e-06
8.802362808e-06
1.703184716e-05
3.653338943e-05
6.722676639e-05
3.237911662e-05
9.809545325e-06
2.328145982e-06
2.531711658e-07
6.020363521e-08
4.14943883e-08
3.932784703e-08
3.877911577e-08
3.832205245e-08
3.771653293e-08
3.690758547e-08
3.586549186e-08
3.465207548e-08
3.340316359e-08
3.22065931e-08
3.112293146e-08
3.017951188e-08
2.937516957e-08
2.869214308e-08
2.810895816e-08
2.760805249e-08
2.717691353e-08
2.680580281e-08
2.648570872e-08
2.620789353e-08
2.596439933e-08
2.574856017e-08
2.555513491e-08
2.538014076e-08
2.522057181e-08
2.50741311e-08
2.493902632e-08
2.481382564e-08
2.469736116e-08
2.458866237e-08
2.448691152e-08
2.439140977e-08
2.430155853e-08
2.421683781e-08
2.413678943e-08
2.406099643e-08
2.398905332e-08
2.392050501e-08
2.385471819e-08
2.379060927e-08
2.372620748e-08
2.365786016e-08
2.357906107e-08
2.347947817e-08
2.334540597e-08
2.316263061e-08
2.292343404e-08
2.264116079e-08
2.238663799e-08
2.237525607e-08
3.551554604e-06
8.317251718e-06
1.766506806e-05
4.167778633e-05
7.986475339e-05
3.47268167e-05
1.040098966e-05
2.742783768e-06
3.77972947e-07
7.431226256e-08
4.274857857e-08
3.943861201e-08
3.86886106e-08
3.815717531e-08
3.752442329e-08
3.671986381e-08
3.571057971e-08
3.455712961e-08
3.338115028e-08
3.225661482e-08
3.123377724e-08
3.033422365e-08
2.955538465e-08
2.888140098e-08
2.829417415e-08
2.77797955e-08
2.732933225e-08
2.693639101e-08
2.659469431e-08
2.629726748e-08
2.603691072e-08
2.580698764e-08
2.560191617e-08
2.541726808e-08
2.52496244e-08
2.509635609e-08
2.495541795e-08
2.482518928e-08
2.470435923e-08
2.459184681e-08
2.448674601e-08
2.438828665e-08
2.429581099e-08
2.420874949e-08
2.412659989e-08
2.404889911e-08
2.397517891e-08
2.390489314e-08
2.383726024e-08
2.377094957e-08
2.370362828e-08
2.363119878e-08
2.354675179e-08
2.343997654e-08
2.329807555e-08
2.310890921e-08
2.286794107e-08
2.259215241e-08
2.235461286e-08
2.237564087e-08
4.029580429e-06
1.001606053e-05
2.556357034e-05
8.480518205e-05
8.310635875e-05
2.983877658e-05
8.885163769e-06
2.50507972e-06
4.976842642e-07
9.812562729e-08
4.563347048e-08
3.962086808e-08
3.843650453e-08
3.778785407e-08
3.71226437e-08
3.633152583e-08
3.53673175e-08
3.4286627e-08
3.319739847e-08
3.216116092e-08
3.121792357e-08
3.038272964e-08
2.965054757e-08
2.90061371e-08
2.84335996e-08
2.792172582e-08
2.746447119e-08
2.705854756e-08
2.670077178e-08
2.638672799e-08
2.611087163e-08
2.586733057e-08
2.565066381e-08
2.545626124e-08
2.52804141e-08
2.512020664e-08
2.497335146e-08
2.483803644e-08
2.471280234e-08
2.459645181e-08
2.448798722e-08
2.438656502e-08
2.429146615e-08
2.420206823e-08
2.411781893e-08
2.403820041e-08
2.396267141e-08
2.389057544e-08
2.382095365e-08
2.375220447e-08
2.368163105e-08
2.360472938e-08
2.351429849e-08
2.340021761e-08
2.32507429e-08
2.305583276e-08
2.281394101e-08
2.254507589e-08
2.23237877e-08
2.237474004e-08
6.200501074e-06
1.51951009e-05