/*--------------------------------*- C++ -*----------------------------------*\
  =========                 |
  \\      /  F ield         | OpenFOAM: The Open Source CFD Toolbox
   \\    /   O peration     | Website:  https://openfoam.org
    \\  /    A nd           | Version:  10
     \\/     M anipulation  |
\*---------------------------------------------------------------------------*/
FoamFile
{
    format      ascii;
    class       volScalarField;
    location    "0.02499901733";
    object      k;
}
// * * * * * * * * * * * * * * * * * * * * * * * * * * * * * * * * * * * * * //

dimensions      [0 2 -2 0 0 0 0];

internalField   nonuniform List<scalar> 
5170
(
7.399784251
7.39929191
7.401312553
7.484835527
9.54073011
6.785733096
6.787659563
6.796501801
6.946873734
12.75879767
6.312357113
6.306808698
6.312269492
6.780998736
16.45862748
5.864268793
5.867455668
5.895620463
6.643459038
18.87619846
5.483224748
5.476457583
5.524008276
6.57723118
21.5430534
5.125737379
5.090825496
5.067498518
6.536242021
23.12936441
4.867749513
4.859732014
4.880123628
6.515458284
23.88230253
4.562763512
4.542907953
4.595958192
6.529269224
24.32545593
4.308693282
4.271485975
4.307781596
6.566642631
24.53649543
4.053434933
4.005598284
4.097431072
6.731202441
24.57832996
3.867694964
3.820506894
3.917527199
7.009811576
24.50751706
3.654005249
3.603976993
3.790458155
7.304238898
24.37133123
3.47872118
3.461928889
3.706815852
7.646838422
24.20086927
3.294624085
3.266075309
3.66886982
8.066763616
24.01537452
3.139057656
3.181857052
3.661207409
8.555063763
23.82627603
3.011265257
3.005021703
3.732131993
9.405931825
23.64499824
2.85888297
2.916148929
3.826293253
9.884865932
23.48282883
2.770799999
2.857184033
4.024293913
10.90394415
23.34887763
2.634110776
2.834719206
4.267504961
11.46104033
23.2203667
2.596851945
2.875795627
4.712419015
13.40806311
21.86674417
0.454493719
0.7024481711
0.7380409894
0.6976710598
0.4261642218
0.2153749952
0.6177730285
0.6546593076
0.5004051618
0.1627114317
0.116786312
0.5085333868
0.5522037819
0.3688849615
0.07146582283
0.07668166474
0.391770731
0.4714924345
0.379873689
0.04763797485
0.0611030168
0.3541968937
0.4219446478
0.4369831697
0.04800329249
0.05170083891
0.3208967351
0.3879495219
0.5566323347
0.05778881109
0.04888901768
0.3305844909
0.3949377602
0.8202232765
0.08326225463
0.0491096823
0.3456654077
0.4334254653
1.204990284
0.1247836182
0.05132646839
0.3695323217
0.493634148
1.572260086
0.171399691
0.05430534766
0.3934699104
0.5639599564
1.870811564
0.2152543932
0.0574133122
0.415115646
0.642052991
2.152331493
0.2577752917
0.0607136134
0.4385394498
0.7172253353
2.389004366
0.2956453011
0.06351467028
0.4550676714
0.7918305457
2.609584721
0.3300117398
0.06666389904
0.4755963642
0.8630884135
2.743359668
0.3570686386
0.0693841191
0.4906042543
0.9376988337
2.920317145
0.3888098666
0.07282652419
0.5146903207
1.020415763
3.148279322
0.4198318761
0.07620148014
0.5259315451
1.091912243
3.222337647
0.4314643371
0.08344429341
0.5474365506
1.165871776
3.296666416
0.4485141739
0.0993905878
0.5658450001
1.264642245
3.350916351
0.4635324814
0.886977464
0.8844472386
1.668315523
3.346231816
0.4757382702
2.513512403
2.865016223
5.120183508
13.45311391
19.4421407
2.469901847
2.887697911
5.552535605
13.8209149
21.36463648
2.408237091
2.954469111
6.120391454
14.69512413
25.5539764
2.389594876
3.069940907
6.763169914
15.96988432
30.00318057
2.402319991
3.243563834
7.415838394
17.86965819
33.34073753
2.453148451
3.550216758
8.601116052
20.46735298
35.71972766
2.559714795
4.02052251
10.18452471
22.99163651
37.74757563
2.724540518
4.687662289
12.0994176
25.49992739
39.78627445
2.977964108
5.622091573
14.29590984
27.77092948
41.58395767
3.356951366
6.843790824
16.64206741
29.93019186
43.29726597
3.919188692
8.456396666
19.2549806
32.06055137
44.91309664
5.177868156
10.91178427
21.92241592
34.14415206
46.34346396
6.958039556
13.42762245
24.34496338
36.11445703
47.71768279
9.530318521
16.18548315
26.7143556
37.91608561
48.97461511
13.29419197
19.31660882
29.07044055
39.68480863
50.25061266
16.5047949
21.87829354
31.08298598
41.40931722
51.80418741
20.96053799
25.73868627
34.18749238
43.89193368
53.72170721
25.6213404
29.46354619
36.73817514
45.65551838
55.18558515
28.69640458
32.22398595
39.24885918
48.30142394
58.37910561
33.92563864
37.61798684
45.13722421
55.38115706
67.46825043
47.06153964
51.55531707
61.02702975
73.74231958
87.82401635
78.97005663
82.22928939
88.79385562
97.34324334
106.3007436
98.29138415
99.74492862
102.7226206
106.6130811
110.6341631
99.68332183
100.3962707
101.9103016
103.9016077
105.713539
94.02264815
94.10889064
94.13783708
93.72347936
92.70656428
77.3075969
77.07231157
76.54258643
75.7915765
74.7784315
60.95110152
60.81319154
60.48106516
59.94474097
59.18705943
48.05656665
47.9649113
47.73545735
47.36391019
46.84344075
38.36387829
38.30074904
38.14870403
37.90436794
37.5644831
31.2242679
31.186395
31.09096089
30.93683764
30.72203128
25.94791898
25.92380246
25.86431425
25.76826009
25.63397187
21.93628031
21.92284549
21.88689696
21.82804451
21.7448199
18.81640895
18.80759277
18.78561175
18.74942135
18.69778399
16.35557585
16.35134084
16.33845419
16.31658406
16.28467771
14.42116341
14.41807838
14.4100145
14.39626054
14.3759141
12.89144078
12.89008252
12.885033
12.87611067
12.86256082
11.66890369
11.66748836
11.66377389
11.65733037
11.64751717
10.6647355
10.66402059
10.66128003
10.6564264
10.64893433
9.819538072
9.818617173
9.816298515
9.812327532
9.806262039
9.087901072
9.087394467
9.085551375
9.082333278
9.077375677
8.444255954
8.443596392
8.441979632
8.439249504
8.435094209
7.868361192
7.868003516
7.866710036
7.864467326
7.861022644
7.349519519
7.349049647
7.347910993
7.34600314
7.343108925
6.877434796
6.877191791
6.876291831
6.874731858
6.872339501
6.446978211
6.446651644
6.445862251
6.444541824
6.442537765
6.052097966
6.051944038
6.051327332
6.050259869
6.048617399
5.689870974
5.689650062
5.689113873
5.688214595
5.686842261
5.356128988
5.356038685
5.355626307
5.354907206
5.353787422
5.048672046
5.048525862
5.048167577
5.047562927
5.046630764
4.764373357
4.764311031
4.764038912
4.763560739
4.762805951
4.501199274
4.501105367
4.500871218
4.500472255
4.499847569
4.256873254
4.256844101
4.25667369
4.256366383
4.255869223
4.030034276
4.029979712
4.029835253
4.029583278
4.029178178
3.818868419
3.818861464
3.818761416
3.818572911
3.818255623
3.622379437
3.622349701
3.622265541
3.622113136
3.621857646
3.439022082
3.43902878
3.438975526
3.438867026
3.438672014
3.267968494
3.267955907
3.267911794
3.267826399
3.267672996
3.107817553
3.107832477
3.10781016
3.10775499
3.107643154
2.957991852
2.957989358
2.95797194
2.957931742
2.957848315
2.817254063
2.81727373
2.817271961
2.817252948
2.817198539
2.685443033
2.685446281
2.685446076
2.685435923
2.685400372
2.56116622
2.561187971
2.561199041
2.561203333
2.561187068
2.444850603
2.44485809
2.444869344
2.444879233
2.444876016
2.334395985
2.334418253
2.334437195
2.334456372
2.334465156
2.231895948
2.231905912
2.231923753
2.231945621
2.231962394
2.132619114
2.132640427
2.132662956
2.132689803
2.132712651
2.044079044
2.04408919
2.044108306
2.044133507
2.044157482
1.949671164
1.949695175
1.949727926
1.949771338
1.949818397
1.884387119
1.884393736
1.884403822
1.884415031
1.884420584
1.768329491
1.76834199
1.768365417
1.768399762
1.768445226
25.58853323
34.85597032
38.91083
41.49174388
43.40193315
45.17356158
46.91230539
48.66094802
50.11997361
51.50328807
52.76610846
53.7996266
54.82736728
55.79376074
56.81161947
58.32708534
59.92311185
61.42104553
65.24215858
76.14417249
96.60965144
111.4244921
112.8837498
106.247584
91.79843099
73.95950925
58.58731241
46.43803327
37.30179012
30.55617933
25.53030484
21.68061041
18.65808629
16.26002222
14.35998805
12.85158376
11.63928456
10.64240254
9.800849602
9.072861437
8.43128731
7.857836062
7.34042676
6.870106225
6.440671253
6.047073438
5.685555692
5.352729118
5.045752251
4.762085279
4.49925382
4.255388344
4.028785297
3.817941731
3.621604463
3.438473017
3.267515215
3.107522975
2.957757248
2.817133078
2.685354768
2.561158834
2.444862021
2.334461977
2.23196816
2.13272387
2.044171441
1.949850662
1.884419742
1.768486832
38.15005373
9.428228465
3.500533902
2.997815988
0.641603174
50.72269563
34.15794052
10.57191237
4.089998487
0.9823442819
54.71065906
50.08925436
29.39021708
10.91440824
2.60886068
55.97224004
58.17698462
46.59380432
26.63165613
9.388149238
56.57576381
63.5935407
57.89463199
39.90492056
20.31520505
57.76426623
67.65600326
65.33860882
50.49055289
30.82963774
59.2131474
70.16958371
69.98143342
58.46068584
39.97502578
60.5986084
72.01409653
73.47015471
64.91082844
48.02882598
61.62022955
73.12171214
76.38258936
70.47768139
55.6503211
62.56889513
74.15153513
78.3878339
74.45648275
62.1000951
63.36534432
74.83029837
79.83711625
77.63132803
67.83819232
63.89262575
75.22202142
80.9877336
80.40509274
72.92448613
64.49488903
75.78973537
82.29554893
83.09109869
77.68183402
65.10468791
76.34823032
83.33444556
85.44742502
81.89263476
65.78175217
77.06081412
84.78664543
88.15639437
86.34590896
67.26870344
78.74439469
86.88092349
91.08418319
90.63731149
68.48278881
79.76735715
88.1127297
93.06676274
93.94771208
70.08479379
82.01002109
91.48650385
97.80418479
99.78558441
74.7712993
88.89838216
101.2455073
109.6390236
110.3160594
88.06322185
105.7414962
118.0670967
121.1473324
112.6014626
107.9228967
120.9019364
125.4369349
120.5724038
107.0828046
117.834097
123.2269816
122.3630669
113.7141969
98.57238389
115.7851566
117.278369
112.5790968
102.4970365
89.14178771
106.7843166
103.9623092
97.95610134
89.18366693
78.59784078
90.7507993
87.47090885
82.28249117
75.45037629
67.53713379
73.0219969
70.40117219
66.56821585
61.72514798
56.20026037
57.91728289
56.07425099
53.43761659
50.14593751
46.39037969
45.99360111
44.76784313
43.01934383
40.83387752
38.32095371
37.01759592
36.22421594
35.08501216
33.64890217
31.97641607
30.37912607
29.87313386
29.13596177
28.19300008
27.07600332
25.42239591
25.10137435
24.62286919
23.99863019
23.24410842
21.61700666
21.41387838
21.10084952
20.68245878
20.16543676
18.62157352
18.49270987
18.28580385
18.00177001
17.64273072
16.23896924
16.15593661
16.01702391
15.82129021
15.56841633
14.34655713
14.29058364
14.19455469
14.05650031
13.87478495
12.84157671
12.80128648
12.73204871
12.63140431
12.49709978
11.63068558
11.59961277
11.54727268
11.47107181
11.36855194
10.63464636
10.60952035
10.56835203
10.50864583
10.42799179
9.793799809
9.772910824
9.73959217
9.691562038
9.626582738
9.066604886
9.04909407
9.021707034
8.982421883
8.929226312
8.425802986
8.411060268
8.388330216
8.355840785
8.311807085
7.853133587
7.840755925
7.821815732
7.794781953
7.758092153
7.336419048
7.326018039
7.310183444
7.28758806
7.256868036
6.866743769
6.858043681
6.844803361
6.825879835
6.800087236
6.437852356
6.430575961
6.419491172
6.40361293
6.381911489
6.044737551
6.038673917
6.029403
6.016073341
5.997791551
5.683611636
5.678554473
5.670792167
5.659589444
5.644169153
5.351126325
5.346923168
5.340429369
5.331009804
5.317989147
5.044423391
5.040922004
5.035481764
5.027551692
5.016542878
4.760999245
4.758096738
4.753545873
4.746868972
4.737553231
4.498360021
4.495951841
4.492143209
4.486518207
4.478629162
4.254670235
4.252689761
4.249514443
4.244782606
4.238103937
4.028204981
4.026574532
4.023926296
4.019944206
4.014286734
3.817480138
3.816146829
3.813944006
3.810595695
3.805803039
3.621235009
3.620143725
3.618311319
3.615495623
3.61143417
3.438184849
3.437299666
3.435780612
3.433415403
3.429973612
3.267290639
3.266573728
3.265315656
3.263329602
3.260412651
3.107355151
3.106781839
3.105743993
3.104077661
3.101604326
2.957634757
2.957181147
2.95633007
2.954937188
2.952844926
2.817050448
2.816697048
2.816001655
2.814837423
2.813065384
2.685302945
2.68503332
2.684471365
2.68350507
2.68201154
2.561132819
2.560930833
2.560476733
2.559671928
2.558407836
2.444857466
2.444715774
2.44435892
2.443699583
2.442641491
2.334472736
2.334374432
2.334090041
2.333542533
2.332646744
2.231991409
2.231933226
2.231717102
2.231274249
2.230528846
2.132754043
2.13272029
2.132549545
2.132181052
2.131547714
2.044205698
2.04419077
2.044057238
2.043751027
2.043212547
1.949910645
1.94995164
1.949893849
1.949688277
1.949281022
1.884432149
1.884378724
1.884210158
1.883884023
1.88335714
1.768562592
1.768673013
1.768767742
1.768839081
1.768873027
0.02248902435
0.002292080869
0.002609619034
0.002702902261
0.002746282504
0.002758792193
0.002761172103
0.002757969141
0.002751863533
0.002745465183
0.002740243198
0.002737212703
0.002736718572
0.002740688673
0.002748023916
0.002754613316
0.002759950878
0.00276428112
0.002767799692
0.002770454945
0.002771955206
0.002772284474
0.002771460538
0.002769711927
0.002767351409
0.002764765407
0.00276176308
0.002758490437
0.002755070443
0.002751378568
0.002747669297
0.002743851027
0.002739923073
0.002736073053
0.002732381404
0.00272872004
0.002725108181
0.002721793539
0.002718607403
0.002715630806
0.002712744835
0.002710169675
0.002707670083
0.002705462956
0.002703423045
0.002701589699
0.002699895803
0.002698442606
0.002697109749
0.002696035523
0.002695067412
0.002694350523
0.002693826122
0.002693479582
0.002693162614
0.002692819385
0.002692596495
0.00269208182
0.002687193795
0.002645335699
0.06767583337
0.003144507704
0.00267337108
0.00290981453
0.00299706217
0.003027815832
0.003025698496
0.003006805677
0.002973415779
0.00293839599
0.002908620116
0.002887906352
0.00287274178
0.002861873358
0.002850457552
0.00284057425
0.002831524492
0.002823064338
0.0028144379
0.002805408793
0.002796273329
0.002787715297
0.002779440458
0.002771539875
0.002764187004
0.002757421583
0.00275114622
0.002745357498
0.002740004979
0.002734965624
0.002730290128
0.00272591526
0.002721819811
0.002718011533
0.002714505849
0.002711305966
0.002708357572
0.00270573541
0.002703368573
0.002701219507
0.002699235182
0.002697435699
0.002695810948
0.002694374938
0.002693135132
0.002692126011
0.00269126444
0.002690512628
0.002689829594
0.002689245242
0.002688720147
0.0026882036
0.002687691765
0.002687184979
0.002686822651
0.002686554939
0.002686162047
0.002683555385
0.002665535844
0.002533208247
0.2690912449
0.01191984271
0.003497275575
0.003687254384
0.003861323585
0.003942261143
0.00391626998
0.003826129678
0.003687130031
0.003536949679
0.003390716313
0.003263152876
0.003157058582
0.00307004317
0.003001557618
0.002949570405
0.002911199728
0.002881706873
0.002857257853
0.00283619731
0.002817474644
0.002800323358
0.002785747105
0.002773414959
0.002762884568
0.002753672804
0.002745585723
0.00273847595
0.002732200957
0.002726619451
0.002721649198
0.002717193539
0.002713204968
0.00270960518
0.002706360435
0.00270345572
0.002700836102
0.002698501238
0.002696415077
0.002694550906
0.002692846414
0.002691263988
0.00268979786
0.002688464307
0.002687210588
0.002686071701
0.00268512342
0.002684418617
0.002683836161
0.002683305863
0.002682838276
0.002682363285
0.002681983524
0.002681603193
0.0026813339
0.002680906641
0.002679840439
0.00267427591
0.002641817814
0.002428207609
1.967479912
0.1924933315
0.01262434145
0.006208829563
0.006108262299
0.006190672312
0.006084211028
0.005808887247
0.005426644788
0.005000648087
0.004576420313
0.004192432581
0.003868949706
0.003609586041
0.003410268946
0.003261761407
0.003151021919
0.003066175115
0.003000659759
0.002949254678
0.002908728663
0.002876544987
0.002850012956
0.002827818328
0.002809014561
0.00279288531
0.002778971402
0.002766914681
0.002756399635
0.002747178133
0.002739075488
0.00273194333
0.002725668937
0.002720110009
0.002715192342
0.002710851656
0.002706964943
0.00270348622
0.002700411341
0.002697710456
0.002695298753
0.002693117176
0.002691096892
0.002689266445
0.002687555451
0.002685974763
0.002684451937
0.002683133265
0.002681862671
0.00268070048
0.002679690424
0.002678738721
0.002677942008
0.002677205922
0.002676591023
0.002675623807
0.002673253351
0.002663385527
0.002616907859
0.002329241976
5.589962863
0.9301165758
0.09062944409
0.01532965519
0.01087891305
0.01075644023
0.01018047762
0.009464020299
0.008646367332
0.007794457869
0.006950501951
0.006158847437
0.005449960492
0.004847557829
0.004359816017
0.003983546408
0.003702713817
0.003496910135
0.003347205202
0.003235811385
0.003149887696
0.003081306611
0.003025025851
0.002978046667
0.00293842688
0.0029046527
0.002875686501
0.002850700138
0.002828991682
0.002810039872
0.002793431336
0.002778862853
0.002766097394
0.002754836263
0.002744865012
0.002736045694
0.002728173301
0.002721130483
0.002714918299
0.002709472213
0.002704639962
0.002700372472
0.002696656804
0.002693200539
0.002690035962
0.002687148024
0.002684450506
0.00268204835
0.002679984919
0.002678173083
0.002676515904
0.002674999153
0.002673743349
0.00267260229
0.002671510956
0.002669733968
0.002665462823
0.002650744843
0.002588970435
0.002236164051
13.09020572
3.19618415
0.5227982923
0.06539987666
0.02119477079
0.01719401042
0.01580419731
0.01445654968
0.01303628125
0.01159150021
0.01016969088
0.008836209824
0.007634685005
0.006595209381
0.005728477149
0.005031336919
0.004489736748
0.004082568618
0.003785992569
0.00357185504
0.003414536012
0.003295166482
0.003201211237
0.003125085493
0.003062135271
0.003009388635
0.002964735943
0.002926592332
0.002893773796
0.002865402881
0.00284076277
0.002819297472
0.002800557321
0.002784078205
0.002769531771
0.002756687241
0.002745333499
0.002735303335
0.002726461145
0.002718658248
0.002711680744
0.002705466512
0.00270000866
0.002695196167
0.00269102409
0.002687330204
0.002683809752
0.00268043264
0.002677480755
0.002674986164
0.002672958518
0.002671128783
0.002669535585
0.002667984971
0.002666363983
0.002663461307
0.002656788408
0.00263645388
0.002557431895
0.002143300132
21.00759722
7.502591726
1.789808201
0.3293681661
0.05567396751
0.02509805875
0.02220427607
0.02031684199
0.01834916415
0.01631089847
0.01427186593
0.01232073439
0.01053115694
0.008954562163
0.007614219887
0.006511015882
0.005629018073
0.004943241836
0.004426574183
0.004047531075
0.00377253942
0.003570702848
0.003418668093
0.003300449248
0.003205734707
0.003128195011
0.003063694307
0.003009389114
0.002963306344
0.002923912655
0.002890046465
0.002860824319
0.002835498661
0.002813407527
0.002794090748
0.00277717278
0.002762333534
0.00274931857
0.002737887748
0.002727824022
0.002718870527
0.002710928011
0.002703938959
0.002697772806
0.002692428805
0.002687794289
0.002683712226
0.002679931589
0.002676368641
0.002673065716
0.002670337109
0.002668012228
0.002666098458
0.002664041884
0.002661687802
0.002657334635
0.002647678194
0.002620311219
0.002522866569
0.002059336248
28.51101426
13.13808577
4.45970042
1.13341311
0.2418484255
0.04979456128
0.03001865653
0.02683598626
0.02423145369
0.0216165858
0.01898594794
0.01641972451
0.01401551479
0.01185265274
0.009979046898
0.008408030824
0.007125910018
0.006104399922
0.005314259382
0.004718398306
0.004277443397
0.003954172815
0.003715358556
0.003535049701
0.003394907077
0.0032829761
0.003191707555
0.003116069756
0.003052667456
0.002999041548
0.002953375534
0.002914277648
0.002880606436
0.002851481597
0.002826190368
0.002804193273
0.002785040834
0.002768313876
0.002753672949
0.00274080474
0.002729440451
0.002719418862
0.002710622056
0.002702857169
0.002695922583
0.002689796729
0.002684698716
0.002680325051
0.00267640046
0.002672719299
0.002669446528
0.002666308572
0.002663648356
0.002660944242
0.00265763029
0.002651424288
0.002638213231
0.00260284138
0.002484881834
0.001986363032
36.23505049
19.24167936
8.725474886
3.259818176
0.8902887266
0.166321064
0.0446009254
0.03367405762
0.03016743963
0.02707778596
0.02394326846
0.02084507237
0.01787334917
0.01514405111
0.01272522037
0.01065722134
0.008937131908
0.007541655114
0.006438220778
0.005585291268
0.004939585836
0.004458747196
0.004103238212
0.003838309657
0.003636739491
0.003479318947
0.003353298465
0.003250360745
0.003165027487
0.003093515426
0.003033095264
0.002981672375
0.002937676467
0.002899844092
0.002867200948
0.002838961627
0.002814445215
0.002793122642
0.002774507366
0.002758233882
0.002743956547
0.002731417039
0.00272043052
0.002710756009
0.002702263072
0.002694685407
0.002688022531
0.002682271293
0.002677449498
0.002673222464
0.002669598171
0.002666073998
0.002662693785
0.002658839922
0.002654253449
0.00264572552
0.002628328865
0.002583392343
0.002440646174
0.001875793654
43.72148423
25.77701434
13.4534384
6.306978745
2.502551989
0.6298810677
0.09085230212
0.04161157298
0.03604608993
0.03250765514
0.02901839352
0.02547202217
0.02200045199
0.01873785048
0.01579310362
0.01322566302
0.0110489513
0.009248844125
0.007797351001
0.006652276249
0.005766629657
0.005094373268
0.004591798083
0.004217501365
0.00393588913
0.003719737792
0.003549691998
0.00341284012
0.003300679948
0.003207534386
0.003129404655
0.003063351153
0.003007144224
0.002959056343
0.002917711066
0.002882002943
0.002851068439
0.002824212672
0.002800852324
0.002780506422
0.002762737776
0.002747175327
0.002733582862
0.002721672696
0.002711252307
0.002702034336
0.002693959752
0.002686821821
0.002680624932
0.002675214302
0.002670722585
0.002666552821
0.002662712304
0.002657781902
0.002651552202
0.002640314922
0.002618232868
0.002563011098
0.002390746998
0.001792196479
51.19301071
32.97083556
19.08974138
10.12554867
4.777092481
1.544170519
0.2416766211
0.05507003426
0.04163712911
0.03747647529
0.03377691655
0.02997459454
0.02615928272
0.02248097615
0.0190814359
0.01604862384
0.01342614531
0.0112144759
0.009394706981
0.007929399693
0.006773315211
0.005878346349
0.005197282505
0.004685206443
0.004300931297
0.004009420483
0.003783892621
0.003605253534
0.003460711577
0.003341809335
0.003242734241
0.003159400291
0.003088811986
0.003028652279
0.002977104789
0.002932759076
0.002894483727
0.002861358043
0.002832639783
0.002807662071
0.00278592232
0.002766908069
0.002750308501
0.002735748161
0.002723020555
0.0027118493
0.002702103454
0.002693526063
0.002686136446
0.002679515614
0.002673753436
0.002668318281
0.002663474293
0.002657622887
0.002649405628
0.002634980522
0.002607488661
0.002541103433
0.002341548725
0.001735060425
58.2359269
40.35252683
25.3215036
14.56795034
7.465943759
2.907245478
0.5745929898
0.08758449378
0.0474632036
0.04169273533
0.0378603156
0.03400342556
0.03003343269
0.02610907048
0.02238520788
0.01898017568
0.01596766582
0.01337389451
0.01119552116
0.009403579941
0.007959533854
0.006818126213
0.005932401448
0.00525606503
0.004744735525
0.004358266944
0.004062627409
0.003831926956
0.003647868653
0.003498038991
0.003374205909
0.003270641216
0.003183288703
0.003109104806
0.003045793095
0.002991546029
0.002944916764
0.002904665464
0.002869827949
0.002839585441
0.002813280932
0.002790325973
0.002770301069
0.002752758551
0.002737514919
0.0027241665
0.002712553837
0.002702302091
0.002693415529
0.00268541302
0.002678508525
0.002671878202
0.002665581914
0.002657907346
0.002647474976
0.002629370753
0.002595617802
0.002516694895
0.002288827299
0.001673269649
64.89095363
47.63951656
31.83626053
19.45806202
10.53846999
4.472866555
1.064731395
0.1594694509
0.05551820373
0.045146601
0.04111855235
0.03733838393
0.03339963274
0.02939342302
0.02549059184
0.0218295829
0.01851329989
0.01559921865
0.01310092124
0.01100420338
0.009279492263
0.007888661901
0.006787345632
0.005929847854
0.00527228236
0.004771938787
0.00439033329
0.004095518154
0.003863376836
0.003676728985
0.003524000613
0.00339727433
0.003290918176
0.003200937783
0.003124361174
0.00305891208
0.003002764291
0.002954421536
0.002912652234
0.002876445545
0.002844968579
0.002817555224
0.002793725493
0.002772903707
0.002754848343
0.002738975648
0.00272521499
0.002713070134
0.002702522502
0.002693015291
0.002684736845
0.002676697366
0.00266883411
0.002658955815
0.002645982016
0.002623924123
0.002583651193
0.002492420113
0.00223701587
0.001609346477
71.36651131
55.2964107
39.06007409
25.00650261
13.93514879
6.096593898
1.710739258
0.3049914177
0.07298728978
0.04830681084
0.04337966547
0.03978417869
0.03605270816
0.03213389034
0.02819942528
0.02440997134
0.02089340833
0.01773619188
0.01497819983
0.01262110495
0.01064960916
0.009030410041
0.007721838982
0.006683281489
0.005872352755
0.005246799225
0.004766924071
0.004396964757
0.004107906669
0.003877986026
0.003691720118
0.003538420921
0.003410606168
0.003303012868
0.003211809121
0.003134061057
0.003067477951
0.00301022192
0.002960826825
0.002918050126
0.00288094282
0.002848659642
0.002820634555
0.002796184485
0.002774944109
0.002756248111
0.002740050235
0.002725759578
0.002713372192
0.002702170524
0.002692275853
0.002682557679
0.002672825175
0.002660602348
0.002644402239
0.002617719051
0.002569979785
0.002464938057
0.002179663876
0.001544860132
78.21461658
63.5604565
46.85462187
30.70607153
16.94795604
7.333204022
2.420048865
0.5778076083
0.1204888586
0.05401403341
0.04480290179
0.04120607244
0.037805574
0.03415346302
0.03034420159
0.02655170692
0.02294617276
0.01964082622
0.01669295208
0.01413659834
0.01196672682
0.01015595584
0.008670028095
0.00746936187
0.006514727566
0.005765897316
0.005183926296
0.004732478416
0.004380021513
0.004101076214
0.003876788261
0.003693488343
0.003541728805
0.003414666079
0.003307425119
0.003216241372
0.003138320536
0.00307139231
0.003013729229
0.002963891473
0.00292075508
0.002883255788
0.002850726398
0.002822323564
0.002797622734
0.002775893706
0.002757055599
0.00274041111
0.002725991639
0.002712871906
0.002701139306
0.002689451764
0.002677499037
0.002662464484
0.002642552779
0.002610463134
0.002554108221
0.002433305149
0.002116525897
0.001481069435
84.64758805
71.17834511
53.55207193
34.59350096
18.08766428
7.707846864
3.017224683
0.998903536
0.2423211155
0.06944937675
0.04619023937
0.04151402634
0.03843908662
0.03522639142
0.03172636546
0.02809349107
0.02452166618
0.02116364226
0.01811736592
0.01543603234
0.01312961497
0.01118109769
0.009560155519
0.008230983221
0.00715618395
0.006298624033
0.005621700844
0.005090233582
0.004672522167
0.004341660769
0.004076373094
0.003860727664
0.003683037574
0.003534938547
0.003410339311
0.003304681156
0.00321458095
0.003137320611
0.003070906387
0.003013572304
0.00296398041
0.002920928124
0.002883583764
0.002850957187
0.002822605268
0.002797702358
0.002776088646
0.002756919717
0.002740246881
0.002724962202
0.00271118221
0.00269728711
0.002682857062
0.002664786664
0.002640993548
0.002603432157
0.002538650289
0.002402863463
0.002056887126
0.001419046638
89.78324149
76.82929554
56.49764037
34.34084896
16.90154749
7.492843071
3.516155815
1.577848082
0.4818445571
0.1195784177
0.05157316366
0.04123470654
0.03817043559
0.03533452568
0.03228637936
0.02897665937
0.02557426419
0.02227524343
0.01921501664
0.01647710294
0.01409280567
0.01205732105
0.01034582615
0.008925308464
0.007760580462
0.006816414827
0.006058680183
0.005455167235
0.004975735802
0.004593791813
0.004286868159
0.004037473786
0.003832491997
0.00366215018
0.003519188491
0.003398313275
0.003295425072
0.003207405275
0.003131817885
0.003066615089
0.003010274179
0.00296136146
0.00291894005
0.002881892665
0.002849717141
0.00282147462
0.00279690812
0.002775063935
0.002755962435
0.002738347068
0.00272235045
0.002705978908
0.002688796306
0.00266734264
0.002639265124
0.002595661374
0.002521797919
0.002370086621
0.001995175681
0.001358478858
95.09004727
77.94550344
52.89288456
28.54736067
14.03210347
7.38074929
4.13310504
2.223181911
0.9150807704
0.2572614814
0.0784814296
0.04409484967
0.03712286106
0.0347205471
0.0321489711
0.02927148969
0.0261776336
0.02303789196
0.020034196
0.01729446992
0.0148769805
0.01279214567
0.01102318719
0.009540619428
0.00831070925
0.00730056168
0.006478306664
0.005813885728
0.005279388267
0.004849395852
0.004501837258
0.004219057687
0.003986658734
0.003793693484
0.003632107052
0.003495660911
0.003379799857
0.003280722334
0.003195727253
0.003122401318
0.003059056882
0.003004109877
0.002956445796
0.002914826443
0.002878662646
0.00284689052
0.002819213272
0.002794541392
0.002772851342
0.002752744133
0.002734277799
0.00271512871
0.002694841775
0.002669492364
0.002636452763
0.002585744519
0.002500988426
0.002330384024
0.001923710804
0.001299164177
97.69374622
70.53186889
42.24416143
23.81305586
13.61471819
8.141544688
5.085702643
3.05889935
1.609573029
0.5959326774
0.1769721959
0.0644239932
0.03946981336
0.03345082958
0.03136719746
0.02907635348
0.02641702913
0.02355538951
0.02069043659
0.0179959874
0.01557259849
0.01345464498
0.01163967928
0.01010498414
0.008820840646
0.00775561064
0.006878386616
0.006160907948
0.0055772639
0.005103014106
0.004717383392
0.004402417664
0.004143051898
0.003927710939
0.003747543937
0.003595617073
0.003466621854
0.003356376685
0.00326186254
0.003180312135
0.00310987077
0.003048747022
0.00299572393
0.002949449499
0.002909206105
0.002873792319
0.002842924578
0.002815314184
0.002790892616
0.002768112327
0.002746969737
0.002724863742
0.002701338329
0.002671984214
0.002633955434
0.002576275075
0.002481287963
0.002293492691
0.00185917564
0.001241914467
91.91831596
62.56474325
38.98162384
23.78035665
14.80525056
9.700385547
6.422551881
4.149201656
2.504752822
1.294607736
0.4711387271
0.1467146087
0.05755994845
0.03589610708
0.03030158613
0.0283533023
0.02629224011
0.02387180053
0.0212543188
0.01867248718
0.01627190035
0.01412922964
0.0122652583
0.01067250711
0.009327779348
0.008203148946
0.007269762854
0.006500797885
0.005869763081
0.005353335063
0.004930997239
0.004584790894
0.004299181618
0.004062109558
0.003863761607
0.00369648745
0.003554475363
0.0034331837
0.003329205425
0.003239523805
0.003162088351
0.003094814416
0.00303642931
0.002985399152
0.002940995215
0.002901855561
0.0028677007
0.0028370288
0.002809783129
0.002784184785
0.002760114909
0.002734796119
0.00270770362
0.002674019401
0.002630758105
0.002565952978
0.002460577457
0.002255692573
0.00179407819
0.001186074513
84.6905308
59.43245936
39.40724169
25.83137462
17.32378274
11.83736948
8.146548012
5.545812809
3.641700988
2.21955568
1.151301826
0.4239153766
0.1345193775
0.0534184867
0.03301556714
0.02764496365
0.02577321219
0.0238661164
0.02167335747
0.01931746785
0.01700822736
0.0148661883
0.01295558459
0.01129518162
0.00987786272
0.008681070335