/*--------------------------------*- C++ -*----------------------------------*\
  =========                 |
  \\      /  F ield         | OpenFOAM: The Open Source CFD Toolbox
   \\    /   O peration     | Website:  https://openfoam.org
    \\  /    A nd           | Version:  10
     \\/     M anipulation  |
\*---------------------------------------------------------------------------*/
FoamFile
{
    format      ascii;
    class       volScalarField;
    location    "0.02499901733";
    object      nut;
}
// * * * * * * * * * * * * * * * * * * * * * * * * * * * * * * * * * * * * * //

dimensions      [0 2 -1 0 0 0 0];

internalField   nonuniform List<scalar> 
5170
(
0.0007673437909
0.0007660086049
0.0007544891381
0.0006363912849
0.0002404614957
0.0007572793463
0.0007562920184
0.0007363980728
0.0004772769523
0.0002780765682
0.0007563369657
0.0007474477149
0.0006777062282
0.0003851136935
0.0003158296049
0.0007448725348
0.0007276148704
0.000615354187
0.000325066634
0.0003382318496
0.0007359039951
0.0007021050697
0.0005563191711
0.0002828667584
0.0003613341695
0.0007144388541
0.0006675053103
0.0004796669506
0.0002557411165
0.0003744114113
0.0007113721682
0.000666064699
0.0004514137423
0.000239711938
0.0003804548844
0.000686760626
0.0006214403708
0.0004116921112
0.0002302842741
0.0003839664855
0.0006660933871
0.0005849116266
0.0003703407332
0.0002252101545
0.0003856381285
0.0006370222536
0.0005456098518
0.0003417841398
0.0002259686228
0.0003859725135
0.0006214277064
0.0005246552617
0.0003188571614
0.0002316198098
0.0003854090357
0.0005924767028
0.0004913044534
0.0003015139913
0.0002390138862
0.0003843285647
0.0005729509983
0.000474220672
0.0002866522946
0.0002477097339
0.0003829832927
0.0005443418712
0.0004391028934
0.0002745450031
0.00025792309
0.0003815186314
0.0005251205897
0.0004300720841
0.0002646876346
0.0002721297476
0.0003800168528
0.0005044584624
0.0003937985388
0.0002605405812
0.0003061447539
0.0003785676703
0.0004815363402
0.0003772552983
0.0002583430155
0.0003166036705
0.0003772699667
0.0004649906938
0.0003646613777
0.0002624965425
0.0003574852792
0.0003761969063
0.0004440136165
0.0003519034747
0.0002671218102
0.0003634353139
0.0003751603966
0.0004313795811
0.0003334152474
0.0002659763154
0.0004070372435
0.0003640487835
1.721734254e-05
0.0001652439543
0.0002695285583
0.0001255321196
1.431923196e-05
8.069377113e-06
0.0001335486667
0.0002076881672
7.731636026e-05
5.403170394e-06
4.349756022e-06
0.0001053355228
0.0001565191658
6.092034775e-05
2.359138443e-06
2.84660002e-06
8.476798513e-05
0.0001286872443
6.332968486e-05
1.567009185e-06
2.262894283e-06
7.855174253e-05
0.0001126012358
6.802726894e-05
1.575679479e-06
1.91190612e-06
6.903540553e-05
9.297108022e-05
7.772193197e-05
1.894627628e-06
1.806084622e-06
6.946146657e-05
8.518880769e-05
0.00010220511
2.726983416e-06
1.812675211e-06
6.797282669e-05
7.980108861e-05
0.0001271780831
4.083263865e-06
1.893098586e-06
6.814929649e-05
7.944148397e-05
0.0001518782176
5.606486417e-06
2.002302468e-06
6.861165599e-05
8.295734134e-05
0.0001722220718
7.037862956e-06
2.115946686e-06
6.91871296e-05
8.924594793e-05
0.0001930541084
8.425880202e-06
2.237336516e-06
7.077997455e-05
9.596908822e-05
0.0002108933204
9.66206655e-06
2.340090384e-06
7.183585773e-05
0.0001036683121
0.0002292679009
1.078594499e-05
2.455223898e-06
7.420003528e-05
0.0001120318275
0.0002397799359
1.166407473e-05
2.555313214e-06
7.589163147e-05
0.0001210532057
0.0002548576023
1.267952593e-05
2.681560039e-06
8.006888954e-05
0.000132227522
0.0002771767847
1.372333914e-05
2.805118683e-06
8.157439012e-05
0.0001413136902
0.0002853374418
1.410322941e-05
3.070462333e-06
8.557800419e-05
0.0001493161716
0.0002894267004
1.464010066e-05
3.655736403e-06
8.789919736e-05
0.0001579785381
0.00029495538
1.511973112e-05
3.241541382e-05
0.0001039001594
0.000182857707
0.0002834860751
1.559173645e-05
0.0004104854239
0.0003201781459
0.0002825387976
0.0004393998671
0.0004612578869
0.0003992569446
0.0003143157141
0.0003064482418
0.0004904831306
0.0006482150711
0.0003797547562
0.0003131437388
0.0003457584926
0.0005727451031
0.0009208160918
0.0003703157394
0.0003170672972
0.0003899004519
0.0006777359504
0.00123425126
0.0003651378631
0.0003276121234
0.000439685156
0.000837119325
0.001522697649
0.0003645339632
0.0003518434863
0.0005365000353
0.001057282595
0.001768527223
0.0003704746204
0.0003915110487
0.0006712624583
0.001282489585
0.002025911278
0.0003796584023
0.0004489027974
0.0008369228237
0.001526237155
0.00230146182
0.000397127256
0.0005340734972
0.001041765363
0.001782965283
0.00258289116
0.0004304899495
0.0006502764681
0.001274837332
0.002054386136
0.002875814419
0.0004862072942
0.0008166928708
0.001553103423
0.002353639303
0.003184386126
0.0006730647897
0.001099619545
0.001862653646
0.002675285094
0.003506644542
0.0009022761973
0.001396515542
0.002172801803
0.00300324755
0.003828043386
0.00123608495
0.001744118882
0.002518217157
0.003347686963
0.004182418015
0.001759522231
0.002196962916
0.002919060652
0.003726309963
0.004545707942
0.002214045628
0.002599831242
0.003295086441
0.004109179179
0.004950878474
0.002902771835
0.003244078882
0.003893869827
0.004678724403
0.005496384638
0.003660506201
0.003918561496
0.004445649873
0.005138211793
0.005917009355
0.004205057748
0.004435541653
0.004958236124
0.005680595485
0.006503122882
0.00509081333
0.005366380282
0.00594938569
0.006769494832
0.007735636113
0.007141504128
0.00747679228
0.008204404459
0.009039406868
0.009899929311
0.01108389231
0.01115273324
0.01129389392
0.01158445512
0.01192303215
0.01292995941
0.01292285143
0.01289774289
0.01286029525
0.01278886234
0.0132170709
0.01316627331
0.01308353771
0.01300446966
0.01297192306
0.01309101529
0.01308538801
0.01307548744
0.01301025152
0.01284467429
0.01228890715
0.01225533331
0.01215871231
0.01204086232
0.01190660151
0.01117453463
0.01115536829
0.01111194275
0.01104733115
0.01096312316
0.01029070358
0.01028004465
0.0102557131
0.01021838673
0.01016864273
0.009638117515
0.009632580733
0.009620084935
0.009600707495
0.009574449419
0.009193668223
0.009191637034
0.009186805601
0.009178994974
0.009167875145
0.008901413235
0.00890121895
0.008900636826
0.008899344579
0.008896866934
0.008697170242
0.008698040894
0.008699721608
0.008701868894
0.008703970372
0.008549651852
0.008550844093
0.008553429844
0.008557039211
0.008561191817
0.008453318084
0.008454654426
0.008457449055
0.008461409193
0.008466095031
0.008408707464
0.008409759804
0.008412101313
0.008415469174
0.00841948033
0.008399959242
0.008400754207
0.008402429325
0.008404812535
0.008407580658
0.008404923136
0.00840533149
0.008406264872
0.008407573619
0.008408996602
0.008404888356
0.008405114232
0.008405537617
0.008406067803
0.008406494343
0.008393364672
0.008393399747
0.008393474698
0.008393495799
0.008393294711
0.008370817198
0.008370825189
0.008370757097
0.008370552396
0.008370070046
0.008341801313
0.008341742867
0.008341591924
0.008341280906
0.008340688578
0.008309526066
0.008309496732
0.008309347864
0.00830903531
0.008308454251
0.008276678312
0.008276619358
0.008276465085
0.008276162693
0.008275620316
0.008243910723
0.008243887888
0.008243766671
0.00824351024
0.008243039281
0.008212085213
0.008212043436
0.008211930936
0.00821170563
0.008211295769
0.008181123482
0.00818111454
0.008181034952
0.008180858267
0.008180520369
0.008151554692
0.008151530234
0.008151460115
0.008151310716
0.008151024413
0.008123169689
0.008123173113
0.008123128847
0.008123017162
0.00812278558
0.008096192144
0.008096179974
0.008096140613
0.008096047046
0.008095851945
0.008070193023
0.008070199426
0.008070177655
0.008070110486
0.008069955119
0.008045166812
0.008045163668
0.008045146224
0.008045092917
0.008044964594
0.008020724788
0.008020737488
0.008020735015
0.008020703454
0.008020607582
0.007997022806
0.007997026917
0.007997026845
0.007997004929
0.007996929231
0.007973993496
0.007974009953
0.007974019837
0.00797401223
0.007973957921
0.007951847149
0.007951854205
0.00795186345
0.007951859628
0.007951816198
0.007930432645
0.007930449598
0.007930464306
0.007930468475
0.007930437382
0.007909792324
0.007909800527
0.007909812447
0.00790981631
0.007909790021
0.007889587131
0.007889602928
0.007889618029
0.007889625984
0.00788960651
0.007869873351
0.00786988065
0.007869892303
0.007869898496
0.007869880897
0.007850420451
0.007850434154
0.007850447058
0.007850454438
0.007850439672
0.007831259909
0.007831265146
0.007831273701
0.007831277725
0.007831262356
0.007812468231
0.007812478992
0.007812487549
0.00781249063
0.007812474578
0.007793294209
0.007793297761
0.007793303305
0.007793304602
0.007793289457
0.007775709199
0.007775716746
0.007775719875
0.00777571665
0.007775695713
0.007755313049
0.007755314595
0.007755316284
0.007755313354
0.007755295608
0.007741944439
0.00774194648
0.007741939488
0.007741922467
0.007741885856
0.00771593117
0.007715931151
0.007715929981
0.007715923802
0.007715903703
0.007713061644
0.007713062672
0.0077130545
0.007713035895
0.007712998048
0.007678075787
0.007678058919
0.007678020172
0.007677957637
0.007677864312
0.007672168841
0.007672181871
0.00767220881
0.007672247313
0.00767229339
0.002809609247
0.001518927513
0.001585791146
0.001805355422
0.002022367318
0.002258494511
0.002522950194
0.002808709957
0.003096776848
0.003396165069
0.003707249044
0.00402692874
0.004347524946
0.004704844018
0.005066402392
0.005490793868
0.006023007532
0.006432477848
0.007064229807
0.008410704784
0.01037981194
0.01210800594
0.01269163199
0.01296028079
0.01270286154
0.01180749041
0.01089947519
0.01013070884
0.009554088273
0.009158835487
0.008894411235
0.008705106533
0.008563981964
0.008469256224
0.008422066296
0.008409162306
0.00840957804
0.008406375014
0.00839277403
0.008369399759
0.008339989098
0.008307799331
0.008275023882
0.008242518147
0.008210842886
0.00818013618
0.008150695366
0.008122510157
0.008095616771
0.00806975741
0.008044799196
0.008020472478
0.00799681633
0.00797386694
0.007951739597
0.007930373833
0.007909734301
0.007889559126
0.007869838879
0.007850401254
0.007831226524
0.007812439939
0.007793258419
0.007775661385
0.00775526574
0.007741841425
0.007715874097
0.007712953092
0.007677777554
0.007672324682
0.00230910255
0.0005927341922
0.0003145935423
0.0002700026172
5.374410326e-05
0.002296355426
0.001856806043
0.0006921402002
0.0003589790332
0.0001036327098
0.002410185358
0.002433897988
0.001800298632
0.0008474899666
0.0002504640177
0.002564998513
0.002885974128
0.002608011788
0.001848924857
0.0008970787642
0.002713176914
0.003269536502
0.003231487236
0.002640130297
0.00173175157
0.002926115971
0.003645405494
0.003756861483
0.00332833907
0.002513702575
0.003208388303
0.003970078247
0.004204242955
0.003910299573
0.003191708148
0.003508535409
0.004315047104
0.004643012997
0.004458077088
0.003822035421
0.003804226546
0.004633690656
0.00507795017
0.005003374587
0.004470843056
0.004111531357
0.004970205135
0.005448222411
0.005467914074
0.005069704244
0.004425203102
0.005299194236
0.005821158998
0.005936750125
0.005673347104
0.004742615864
0.005634309589
0.006215173461
0.006409280746
0.006235663575
0.005065434367
0.005988447935
0.00663731117
0.006921591891
0.006826670117
0.00542608655
0.006364240904
0.00704015363
0.007413558499
0.007422729509
0.00579107882
0.006765482917
0.007514438054
0.007983192204
0.008105847812
0.006239023256
0.007264298518
0.008074816763
0.008609541836
0.00878897156
0.006757718393
0.007762139545
0.008531108959
0.009021124215
0.009223804032
0.00716222612
0.008181048782
0.009013132646
0.009573383931
0.009758478479
0.007853911005
0.009000315663
0.009952079577
0.01041105505
0.0102434882
0.00932496208
0.01041261244
0.01100728022
0.01108376637
0.01047213057
0.01101348442
0.01168699411
0.01181694605
0.01135922551
0.01048056109
0.01233175001
0.01233203003
0.01199950891
0.01142005365
0.01056609659
0.01257817265
0.01245531278
0.01213855423
0.01150752805
0.01069361507
0.01292475369
0.01256777992
0.01206118345
0.01143850308
0.01072080055
0.01252229193
0.01215570615
0.01170048076
0.01116624228
0.01057329702
0.0116844867
0.01141334128
0.0110694997
0.01066696015
0.01022165319
0.01082350907
0.01064276821
0.01040567887
0.01012318515
0.009806074792
0.01008713983
0.009975337745
0.009822673505
0.009635553385
0.009420028496
0.009531485785
0.00946772823
0.009375914328
0.009258586034
0.00911810164
0.009149346889
0.00911703799
0.009065924963
0.008995856969
0.008906688787
0.008892699502
0.008879384286
0.008853212786
0.00881256664
0.008755925364
0.00870782157
0.008705380693
0.008693775884
0.008670824962
0.008634456027
0.008568548031
0.008571670818
0.008568223356
0.008555901396
0.00853244844
0.008473675215
0.008478528881
0.008478855316
0.008472332678
0.008456657131
0.008424989512
0.008428741583
0.008429474869
0.008424878016
0.008412693741
0.008410292605
0.008411668154
0.008410785598
0.008405498667
0.00839372798
0.008409286536
0.008408303355
0.008405241012
0.008398245804
0.00838551067
0.008405306816
0.008402730452
0.008397972064
0.008389510634
0.008375835745
0.008391409259
0.008388041006
0.008382389797
0.008373221287
0.008359284486
0.008368033338
0.008364489465
0.008358659943
0.008349531434
0.008336053462
0.008338716824
0.008335303857
0.008329710768
0.008321079832
0.008308506109
0.008306667977
0.008303544371
0.008298404089
0.00829050476
0.008279051694
0.008274023795
0.008271217824
0.008266585617
0.008259470245
0.008249161589
0.008241653587
0.008239180147
0.00823506598
0.008228724709
0.008219516701
0.008210094823
0.008207927296
0.00820429549
0.00819867161
0.008190477028
0.008179500218
0.008177618972
0.008174433561
0.00816946666
0.008162193058
0.008150148042
0.00814851324
0.008145721319
0.008141338858
0.008134887587
0.008122042984
0.008120627681
0.008118183644
0.008114316745
0.008108591218
0.008095212474
0.008093980122
0.008091834168
0.008088415552
0.008083326044
0.008069414514
0.008068346814
0.008066464005
0.008063438692
0.008058907351
0.008044506659
0.008043581849
0.008041928839
0.008039248954
0.008035210157
0.008020232735
0.008019441228
0.008017996722
0.008015626445
0.00801202727
0.007996616227
0.007995933914
0.007994666916
0.007992565526
0.007989352337
0.007973700727
0.007973113943
0.007972002641
0.007970138093
0.007967266231
0.007951595873
0.007951083455
0.007950101414
0.007948439588
0.007945864623
0.007930250264
0.007929801593
0.007928930692
0.007927444446
0.007925128526
0.007909624944
0.007909226362
0.007908447451
0.00790711059
0.007905018593
0.007889463975
0.007889109703
0.007888409883
0.007887201552
0.007885303427
0.007869754786
0.007869437325
0.007868805673
0.007867710154
0.007865983781
0.007850326749
0.007850037787
0.007849460407
0.007848457295
0.007846874808
0.007831159119
0.007830895362
0.007830367414
0.007829449108
0.007827999008
0.007812376746
0.007812128995
0.007811635569
0.007810781219
0.007809435675
0.007793202545
0.007792978866
0.007792529603
0.007791748971
0.007790516657
0.007775601679
0.007775378355
0.007774942124
0.007774196508
0.007773030715
0.007755212197
0.007755013092
0.00775462087
0.00775394583
0.007752885345
0.007741766343
0.007741532487
0.007741110423
0.00774041819
0.007739362628
0.007715821266
0.007715639872
0.007715292229
0.00771470069
0.007713777976
0.007712876816
0.007712650764
0.007712256081
0.007711619259
0.007710662504
0.007677644255
0.007677312759
0.007676803027
0.007676054013
0.007674994967
0.007672362514
0.007672398002
0.00767237418
0.007672248309
0.007671964714
3.113083681e-06
1.48012787e-06
2.92787253e-05
0.0001679489623
0.0003852623974
0.0004932381097
0.0005358269184
0.0005525342118
0.000559592206
0.0005626785705
0.0005640934259
0.0005645349141
0.0005646375088
0.00056475956
0.0005653843657
0.0005660212501
0.0005665578469
0.0005669622496
0.0005672952637
0.0005676213864
0.0005679076858
0.0005680333525
0.0005680288282
0.0005679053382
0.0005676738183
0.0005674136149
0.000567114194
0.0005667840902
0.0005664346339
0.0005660609322
0.0005656795644
0.0005652860045
0.0005648781634
0.0005644788989
0.0005640926643
0.0005637052157
0.0005633187017
0.0005629567749
0.0005626066785
0.0005622741051
0.0005619447706
0.000561640179
0.0005613473454
0.0005610924696
0.0005608594272
0.000560650891
0.0005604584004
0.0005602820736
0.0005601165037
0.0005599814816
0.0005598420721
0.0005597230791
0.0005596363162
0.000559600919
0.0005595724104
0.0005594427313
0.0005555153615
0.0005223985572
0.0003177141612
2.874106755e-05
1.17543843e-05
1.137098109e-06
1.167110659e-05
7.280171236e-05
0.0002245441214
0.0003810658601
0.0004834758305
0.0005367674052
0.0005627388785
0.0005749324823
0.0005809638171
0.0005822236117
0.0005814725159
0.0005803099909
0.0005787525641
0.0005773531834
0.0005761456403
0.0005751478068
0.00057428433
0.0005733875729
0.0005722696493
0.0005712558302
0.0005703110997
0.0005693935301
0.0005685086701
0.0005677039438
0.00056696992
0.0005663007833
0.0005656867366
0.0005651156647
0.0005645814506
0.0005640790554
0.0005636059875
0.0005631680779
0.0005627652264
0.0005623975377
0.0005620622681
0.0005617617345
0.0005614905373
0.0005612416409
0.0005610042919
0.0005607843017
0.0005605736457
0.0005603566132
0.0005601676021
0.0005600383996
0.0005599435665
0.0005598656123
0.0005597986748
0.0005597397293
0.0005597063149
0.0005596813977
0.0005596509596
0.0005595994988
0.000559474442
0.0005578900457
0.0005453261457
0.0004765296753
0.0002382056262
2.752145256e-05
4.416019543e-05
3.510797608e-06
6.342879455e-06
4.534294773e-05
0.0001367287095
0.0002900758937
0.0004399979745
0.0005371796331
0.0005910682067
0.0006170974725
0.0006250213022
0.0006233172359
0.0006168271201
0.0006085352194
0.000600418664
0.0005933382841
0.0005877851859
0.0005838441281
0.0005808090037
0.0005782637806
0.0005762864334
0.0005741331965
0.0005722532498
0.0005706877548
0.0005694035383
0.0005682837782
0.0005672983058
0.0005664322027
0.0005656695077
0.0005649935652
0.0005643919107
0.0005638495963
0.0005633602728
0.000562921535
0.000562527729
0.0005621778103
0.000561872706
0.0005616098058
0.0005613803338
0.0005611892094
0.0005610273739
0.0005608644085
0.000560703808
0.0005605599882
0.0005603836345
0.0005601712714
0.0005599940588
0.0005598928683
0.0005598206915
0.0005597577786
0.0005596993803
0.0005596425062
0.0005595864234
0.0005594865086
0.0005589349754
0.0005547315267
0.0005325383883
0.0004365791914
0.0001990095141
2.637919655e-05
0.0002803344191
4.746429269e-05
6.22267107e-06
2.197088474e-05
9.767456677e-05
0.000245634277
0.0004413410957
0.0005818902472
0.0006678664537
0.000711119105
0.0007233817594
0.0007168422807
0.0007002160746
0.0006787839963
0.0006568476871
0.0006374182325
0.0006219320313
0.0006100489664
0.0006011175556
0.0005942344698
0.0005886991527
0.0005845041431
0.0005810754722
0.0005782349924
0.0005758469472
0.0005738184598
0.00057206642
0.0005705416251
0.0005692105279
0.0005680441049
0.0005670238825
0.0005661291319
0.0005653412923
0.0005646476054
0.000564034887
0.0005634920534
0.0005630121323
0.0005625881593
0.000562214528
0.0005619065597
0.0005616623679
0.0005614218808
0.0005611936009
0.0005610164244
0.0005608683115
0.0005606788041
0.0005605118283
0.0005603884249
0.0005602383085
0.0005600968611
0.0005599803605
0.0005598756034
0.000559775344
0.0005595541083
0.0005582799036
0.0005505085976
0.0005177005247
0.0004017443837
0.0001736976798
2.530292464e-05
0.0006337807429
0.0001794199315
3.175250419e-05
1.63805345e-05
6.297048027e-05
0.0002130560548
0.0004513682514
0.0006483480728
0.0007802890167
0.000857540724
0.000892667199
0.000894988475
0.0008723037609
0.0008327895788
0.000784079995
0.0007368119357
0.0006971406792
0.000666852601
0.0006451153447
0.0006296925173
0.0006183584878
0.0006096649876
0.0006026555633
0.0005968433924
0.0005919621092
0.0005878282927
0.0005842943
0.0005812515448
0.0005786167482
0.0005763226438
0.0005743178607
0.0005725660796
0.0005710278841
0.0005696716394
0.000568472182
0.0005674009071
0.0005664434823
0.0005655859112
0.0005648141493
0.0005640985106
0.0005634479098
0.0005629480252
0.0005625621607
0.000562211845
0.0005619017195
0.0005615502382
0.0005611908052
0.0005608983002
0.0005606806282
0.0005604776225
0.0005602701825
0.0005600795186
0.0005598739991
0.0005592983934
0.0005565499585
0.0005447384263
0.0005006941567
0.0003704475622
0.0001555218828
2.429123219e-05
0.001496490675
0.0004968392356
0.0001391365589
3.328204292e-05
4.058428196e-05
0.0001425451797
0.0003744754122
0.000617059234
0.000789634763
0.0008926115586
0.0009471417855
0.0009667491318
0.0009598040277
0.000932600352
0.0008914556374
0.0008415202899
0.0007892566331
0.0007413193931
0.0007022494437
0.0006729401201
0.0006517340539
0.0006362424433
0.0006244731784
0.000615132867
0.0006074728049
0.0006010764515
0.0005956679739
0.000591051632
0.0005870868249
0.0005836623875
0.0005806916577
0.0005781063852
0.0005758460961
0.0005738632754
0.0005721179868
0.0005705749502
0.0005692106089
0.0005680027918
0.0005669315926
0.0005659769302
0.0005651197837
0.0005643436059
0.0005636227026
0.0005630249315
0.0005626460217
0.000562398207
0.0005620142271
0.0005614930965
0.0005610526676
0.0005607586093
0.0005605498399
0.0005603260948
0.0005599558024
0.0005588289134
0.0005540028936
0.0005372933818
0.0004818476275
0.00034200191
0.0001409026769
2.328220696e-05
0.002217336166
0.001128496288
0.0003789044656
0.0001201749637
4.010209686e-05
7.469378671e-05
0.000236263294
0.0005105825013
0.0007296594534
0.0008736112346
0.0009594592321
0.001003290538
0.001016491236
0.001006732037
0.0009791044175
0.0009373827766
0.0008857178714
0.0008299783974
0.0007770051803
0.0007320095686
0.000696953602
0.0006708769742
0.0006515826143
0.0006369401597
0.0006254158782
0.000616064411
0.0006083079208
0.0006017801699
0.0005962397494
0.0005914989786
0.0005874193615
0.0005838972049
0.0005808398611
0.0005781757024
0.0005758464742
0.0005738054406
0.0005720141825
0.0005704409486
0.0005690574129
0.0005678370329
0.0005667570502
0.000565791277
0.0005648758208
0.0005640526517
0.0005633903452
0.000562949167
0.0005626332591
0.0005622710694
0.0005617966395
0.0005612878752
0.0005608622974
0.0005605156002
0.0005599371924
0.000557917475
0.000550848221
0.0005280417346
0.0004605835188
0.0003158471977
0.0001287139409
2.236935362e-05
0.002882513118
0.001818495302
0.0008641880652
0.0003060020924
0.000111228966
5.261495968e-05
0.0001436530216
0.0003790235526
0.0006533407478
0.0008503742916
0.0009727631241
0.001040961024
0.001070648696
0.001072960937
0.001055131633
0.001021696699
0.0009756529223
0.000920544051
0.0008618443664
0.00080559776
0.0007568105027
0.000717809694
0.0006881134413
0.0006657684661
0.0006486633893
0.0006351825069
0.0006242664322
0.0006152381516
0.0006076662978
0.0006012507771
0.0005957766192
0.0005910807633
0.0005870291996
0.0005835221108
0.0005804735711
0.0005778185164
0.0005755021528
0.0005734770486
0.0005717044916
0.0005701478812
0.0005687799144
0.0005675816527
0.0005665798046
0.0005656269271
0.0005646262177
0.0005637426629
0.0005631499128
0.0005627819021
0.0005624843512
0.0005621234963
0.0005616564155
0.0005610304148
0.0005598820252
0.0005564682138
0.0005466764626
0.0005161772008
0.0004378398078
0.0002910812244
0.0001182059986
2.157811206e-05
0.003571132041
0.002505575638
0.001596527633
0.0008531479388
0.0003053583957
9.332857857e-05
8.295967456e-05
0.0002593324583
0.000555356904
0.0008130171198
0.000981132491
0.001078962099
0.001126701492
0.001139870198
0.001128960298
0.001100849091
0.001059218455
0.001006830235
0.0009474375529
0.0008856495194
0.0008269016812
0.0007757824154
0.0007344521234
0.0007024796045
0.0006780300853
0.0006590916696
0.0006440629626
0.0006318443726
0.0006217244223
0.0006132312788
0.0006060362602
0.0005998983832
0.000594632815
0.0005900958356
0.0005861706645
0.0005827660699
0.0005798044017
0.0005772239333
0.0005749720596
0.000573002507
0.000571277461
0.0005697635716
0.00056844787
0.00056733569
0.0005663204044
0.0005652989665
0.0005643338015
0.0005635528416
0.0005630145729
0.0005626277662
0.000562238449
0.0005614655676
0.0005595733712
0.0005548090012
0.0005413400958
0.0005030700736
0.0004167866311
0.0002698567444
0.0001085498662
2.037685275e-05
0.004246443567
0.003192488104
0.002229254415
0.00145562882
0.0008249890801
0.0002775296686
7.146388166e-05
0.0001564834527
0.0004326224373
0.0007481826315
0.0009731707722
0.001109581028
0.001181006934
0.001207636057
0.001204066135
0.001179985536
0.001140963503
0.001090307633
0.00103130655
0.0009671865311
0.0009022923478
0.0008416067775
0.000789185809
0.0007467004103
0.0007135222574
0.0006878468803
0.0006677260742
0.0006516076333
0.0006384169109
0.00062744474
0.0006182106516
0.0006103740482
0.0006036811655
0.000597933688
0.0005929776303
0.0005886898717
0.0005849684235
0.0005817309082
0.0005789092182
0.000576448635
0.0005742973508
0.0005724149779
0.0005707670949
0.0005693265647
0.0005680666609
0.0005669870297
0.0005660068479
0.0005650442605
0.0005641561631
0.0005634011388
0.0005627186028
0.0005616240974
0.0005591256246
0.000552717934
0.0005346674073
0.0004897159622
0.0003974050806
0.0002520080532
0.0001001253599
1.946729407e-05
0.004956404538
0.003933826829
0.002929330656
0.002052587162
0.001298314708
0.0005736909419
0.0001295956009
8.933303749e-05
0.0003039536329
0.0006546069626
0.0009424694687
0.001125893522
0.001227656986
0.00127276209
0.001279692533
0.001260967474
0.00122443531
0.001174682369
0.00111559381
0.001049899147
0.0009809965797
0.0009132156238
0.0008511442027
0.0007981316686
0.0007552659548
0.0007216310539
0.0006953555408
0.0006745434699
0.0006577198991
0.0006438590803
0.0006322685542
0.0006224748242
0.0006141368501
0.0006069954321
0.0006008527588
0.0005955489141
0.0005909558574
0.0005869725799
0.0005835069029
0.0005804904418
0.0005778554251
0.0005755516493
0.0005735342697
0.0005717654246
0.0005702195541
0.0005688658864
0.000567687259
0.000566677905
0.0005657495259
0.0005648073292
0.0005637352379
0.0005620683421
0.0005585543571
0.0005501144538
0.0005272962217
0.0004761610785
0.0003792984767
0.0002364863305
9.308759752e-05
1.884696353e-05
0.005645716729
0.004687043188
0.003654582823
0.002676520637
0.001774925036
0.0009440613761
0.000257652598
7.536195014e-05
0.0001982226217
0.0005361006961
0.0008844894387
0.001122252726
0.001262136267
0.001332082399
0.00135396674
0.00134344949
0.001310836632
0.001262362793
0.001203016277
0.001135717548
0.001063502908
0.0009900756226
0.0009198108732
0.000856843138
0.0008037757532
0.0007610584193
0.0007274297854
0.0007009508884
0.0006797879046
0.0006625380705
0.0006482325862
0.0006362067802
0.0006259995103
0.0006172815504
0.0006097979914
0.000603349108
0.0005977768103
0.000592950205
0.0005887605539
0.0005851129678
0.0005819327046
0.0005791506216
0.0005767185801
0.0005745902197
0.0005727318396
0.0005711048751
0.000569683782
0.0005684323833
0.000567311626
0.0005662362017
0.0005649288605
0.0005626599502
0.0005578103127
0.0005463482192
0.0005190610209
0.0004622411667
0.0003618315593
0.0002220611948
8.653515835e-05
1.817603976e-05
0.00633893093
0.00544392969
0.004394470015
0.003314050151
0.002257319014
0.001266004749
0.0004139593361
9.841846141e-05
0.0001278726151
0.0004039795426
0.0007850557476
0.001079966877
0.001268065994
0.001372337868
0.001416710443
0.001419809819
0.001394731023
0.001349798397
0.001291468904
0.001223388735
0.001148696766
0.001070866771
0.000993879293
0.0009220323186
0.0008589694631
0.0008065032462
0.0007644295906
0.0007311897477
0.0007048195461
0.0006835635686
0.0006661119298
0.0006515542457
0.0006392582346
0.0006287903717
0.0006198200633
0.0006121041769
0.0006054446069
0.0005996784701
0.000594678231
0.0005903245463
0.0005865340177
0.0005832215939
0.0005803294299
0.0005778034816
0.000575597063
0.0005736666488
0.000571975937
0.0005704764479
0.0005691167857
0.0005677566038
0.0005659967142
0.0005629691312
0.0005567014059
0.0005419446148
0.0005102012369
0.0004482866295
0.0003453544576
0.0002090582742
8.069204045e-05
1.748185087e-05
0.007075205889
0.00626031874
0.005187212806
0.003973787475
0.002725481365
0.001561082859
0.0006135398566
0.0001630504966
9.822239208e-05
0.0002749245687
0.0006449610614
0.0009973984333
0.001241130178
0.001387023505
0.001459930279
0.001481472123
0.00146763213
0.00142901104
0.001373811416
0.001306643086
0.001231215874
0.001150857927
0.001069184318
0.0009904761025
0.0009187998511
0.0008570173838
0.0008061257655
0.0007653479197
0.0007329398708
0.0007069907082
0.0006858891924
0.0006684444566
0.0006538146827
0.0006414135828
0.0006308208326
0.0006217259424
0.0006138858907
0.0006071016375
0.0006012181798
0.0005961002
0.0005916446489
0.0005877563658
0.0005843629122
0.0005813987076
0.0005788069322
0.0005765352423
0.0005745414278
0.0005727617489
0.0005711231912
0.0005694208511
0.0005670561032
0.000563084536
0.0005549976948
0.0005369572454
0.0005006792446
0.0004341876552
0.0003295224619
0.0001968639683
7.504326204e-05
1.678147166e-05
0.007887895251
0.007121789795
0.005967401858
0.004556309927
0.003079851355
0.001773300509
0.0008411984437
0.0002948914058
0.000112996897
0.0001783142725
0.0004671972023
0.0008568774959
0.001165698102
0.001364410718
0.001473022122
0.001517458463
0.001518334253
0.001489064733
0.001439508487
0.001375835986
0.001302256505
0.001222058604
0.001138777111
0.001056310929
0.0009787797964
0.0009096233678
0.0008508253428
0.000802599355
0.0007638078174
0.0007326862379
0.0007074982894
0.000686813214
0.000669584681
0.0006550596629
0.0006427040355
0.0006321203093
0.0006230092037
0.0006151343856
0.0006083070473
0.0006023754978
0.0005972128429
0.0005927094084
0.0005887814242
0.0005853456903
0.0005823390661
0.0005796978071
0.0005773724277
0.0005752784975
0.0005733089675
0.0005711767835
0.0005680258334
0.0005628392766
0.0005525029999
0.0005311776515
0.0004904843217
0.0004198853927
0.0003141002031
0.000185204469
6.963394251e-05
1.608858892e-05
0.008610426935
0.007820789521
0.006512701624
0.004857288377
0.003183659514
0.001872753804
0.001079046887
0.0005308884863
0.0001981852816
0.0001328972275
0.0002965215015
0.0006452897322
0.001014499383
0.001281714132
0.00143932928
0.0015149876
0.001535479723
0.001518897945
0.001478219465
0.001421109168
0.001352500275
0.001275989615
0.001194846001
0.001112590203
0.001033011531
0.0009597172047
0.0008953204769
0.0008409442495
0.0007962645889
0.0007600017156
0.0007305497976
0.0007064157122
0.0006863985916
0.0006695986184