/*--------------------------------*- C++ -*----------------------------------*\
  =========                 |
  \\      /  F ield         | OpenFOAM: The Open Source CFD Toolbox
   \\    /   O peration     | Website:  https://openfoam.org
    \\  /    A nd           | Version:  10
     \\/     M anipulation  |
\*---------------------------------------------------------------------------*/
FoamFile
{
    format      ascii;
    class       volScalarField;
    location    "0.02499901733";
    object      O;
}
// * * * * * * * * * * * * * * * * * * * * * * * * * * * * * * * * * * * * * //

dimensions      [0 0 0 0 0 0 0];

internalField   nonuniform List<scalar> 
5170
(
0
0
0
0
0
0
0
0
0
0
0
0
0
0
0
0
0
0
0
0
0
0
0
0
0
0
0
0
0
0
0
0
0
0
0
0
0
0
0
0
0
0
0
0
0
0
0
0
0
0
0
0
0
0
0
0
0
0
0
0
0
0
0
0
0
0
0
0
0
0
0
0
0
0
0
0
0
0
0
0
0
0
0
0
0
0
0
0
0
0
0
0
0
0
0
0
0
7.702826651e-11
6.883155368e-10
3.644248178e-09
0.0004147356293
0.0004150918325
0.0004149796475
0.0004162486261
0.0004189345212
0.000255181849
0.0002705652506
0.0002700989915
0.0002674694643
0.0002467857063
0.0001732832617
0.0001932039109
0.0001930260133
0.0001869488657
0.0001629059131
0.0001308198818
0.0001476884583
0.0001481326645
0.000139412357
0.0001174516464
0.0001030460638
0.0001178407184
0.0001191018523
0.0001113629302
9.228619412e-05
8.697793884e-05
9.996572281e-05
0.0001011692434
9.348258467e-05
7.915461679e-05
7.581013163e-05
8.674718659e-05
8.773082814e-05
8.280381281e-05
7.300527546e-05
7.284335757e-05
7.762283566e-05
7.849148062e-05
7.452756301e-05
7.202367768e-05
7.190417094e-05
7.282293628e-05
7.330028933e-05
7.290040728e-05
6.55914583e-05
6.621472994e-05
7.210055412e-05
7.243309791e-05
6.889607347e-05
6.190685476e-05
6.247471221e-05
6.757577096e-05
6.811137873e-05
6.455158302e-05
6.072947708e-05
6.096501898e-05
6.366145071e-05
6.417996721e-05
6.160779361e-05
5.925479655e-05
5.947712555e-05
6.141450944e-05
6.149962333e-05
6.02012396e-05
5.833959582e-05
5.856560657e-05
6.000113028e-05
6.018162079e-05
5.901792728e-05
5.738361934e-05
5.766270601e-05
5.893531771e-05
5.906537711e-05
5.800337878e-05
5.638754269e-05
5.676477712e-05
5.802217712e-05
5.810137554e-05
5.701437041e-05
5.5373097e-05
5.588023382e-05
5.711926186e-05
5.715513823e-05
5.602314964e-05
5.43522073e-05
5.503738553e-05
5.621529627e-05
5.619320322e-05
5.50231151e-05
5.333224782e-05
5.572900258e-05
5.557882629e-05
5.52479475e-05
5.40014793e-05
5.230728491e-05
0.0002298687935
7.54162329e-05
5.852703003e-05
5.402902506e-05
5.206341941e-05
5.038744868e-11
5.479563383e-10
8.823784833e-09
1.325372401e-07
2.179308538e-06
2.351524564e-10
1.671497157e-09
1.798969392e-08
1.378417481e-07
1.177982975e-06
5.644557162e-10
3.087949018e-09
2.326761383e-08
1.057361557e-07
5.685081007e-07
1.021230334e-09
4.472259746e-09
2.352176508e-08
7.02095295e-08
2.744418077e-07
1.405577016e-09
4.384667985e-09
5.39735566e-09
4.320932181e-08
1.529833092e-07
1.736620302e-09
4.249592825e-09
6.27891399e-09
2.856559349e-08
1.173356796e-07
2.050356917e-09
4.154286205e-09
5.494220818e-09
2.10391693e-08
1.003902174e-07
2.28057427e-09
3.522216859e-09
4.76173565e-09
1.651423944e-08
7.981254374e-08
2.054649144e-09
8.788645021e-10
3.889968319e-09
1.337670942e-08
6.587765814e-08
1.859989915e-09
1.00473266e-09
3.2354009e-09
1.151630364e-08
5.894744116e-08
1.700072693e-09
1.125450077e-09
2.995093528e-09
1.168892901e-08
6.205990215e-08
1.244683136e-09
1.078924412e-09
2.735822958e-09
1.070621785e-08
5.221503824e-08
8.352839304e-10
9.059111888e-10
2.159184e-09
7.957655358e-09
3.442177305e-08
5.908326016e-10
7.609031713e-10
1.975798671e-09
7.955473911e-09
3.597980074e-08
4.682304096e-10
7.840325013e-10
2.009720384e-09
8.254309333e-09
3.528554819e-08
2.927703132e-10
7.093192013e-10
2.286828749e-09
9.524207663e-09
3.354931593e-08
4.03810072e-10
8.962836247e-10
3.100147019e-09
1.212742443e-08
4.513888281e-08
6.097757181e-10
1.340934087e-09
4.486447554e-09
2.115154718e-08
7.860436471e-08
1.568468575e-09
3.780517922e-09
1.380418102e-08
5.399457856e-08
2.029916434e-07
2.845106602e-09
5.957725509e-09
1.809376461e-08
5.852702249e-08
1.838018589e-07
4.139239337e-09
6.856580741e-09
1.557009769e-08
3.850810981e-08
9.515803063e-08
4.364920059e-09
5.755176791e-09
9.59385025e-09
1.793018901e-08
3.485053512e-08
3.005399488e-09
3.469755307e-09
4.578861169e-09
6.663866477e-09
1.028116655e-08
1.35544109e-09
1.444612377e-09
1.646075637e-09
1.975037641e-09
2.46579174e-09
4.245124728e-10
4.392156078e-10
4.612999734e-10
4.881182893e-10
5.488338753e-10
1.171744817e-10
1.184522007e-10
1.200139739e-10
1.200090499e-10
1.210333495e-10
3.897814407e-11
3.894385905e-11
3.858921492e-11
3.789106685e-11
3.69916094e-11
1.488316402e-11
1.479118347e-11
1.4528311e-11
1.409059304e-11
1.351045648e-11
5.944905062e-12
5.911514429e-12
5.868756127e-12
5.699377694e-12
5.475247862e-12
2.439605216e-12
2.401096765e-12
2.356404399e-12
2.306828733e-12
2.208679546e-12
9.993726238e-13
1.002285744e-12
1.013396908e-12
9.901839574e-13
9.522443243e-13
5.041943574e-13
5.014479319e-13
4.943560605e-13
4.814717664e-13
4.622471394e-13
5.269077798e-13
5.366059373e-13
5.527542209e-13
5.620269061e-13
5.355323531e-13
1.787266456e-12
1.847658262e-12
1.970214593e-12
2.125202405e-12
2.285087701e-12
6.123207421e-12
6.620465589e-12
7.696135093e-12
9.279895306e-12
1.135272069e-11
3.030013394e-11
3.120628675e-11
3.319616484e-11
3.620873677e-11
3.939121681e-11
6.264313482e-11
6.528026152e-11
7.115972814e-11
8.021315285e-11
9.248155614e-11
1.041842092e-10
1.08313052e-10
1.174362913e-10
1.313659209e-10
1.50129588e-10
1.083756282e-10
1.132196904e-10
1.238627068e-10
1.399769426e-10
1.612914211e-10
5.599988805e-11
5.964800274e-11
6.693520186e-11
7.751798938e-11
9.14563623e-11
2.494955503e-13
8.200098824e-13
2.378937815e-12
5.23396758e-12
1.060783066e-11
0
0
0
0
0
0
0
0
0
0
0
3.57944492e-14
0
0
0
0
0
0
0
0
0
0
0
0
0
0
0
0
0
0
0
0
0
0
0
0
0
0
0
0
0
0
0
0
0
0
0
0
0
0
0
0
0
0
0
0
0
0
0
0
0
0
0
0
0
0
0
0
0
0
0
0
0
0
0
0
0
0
0
0
0
0
0
0
0
1.434826211e-11
1.387076746e-11
1.292185624e-11
1.167571144e-11
1.031719519e-11
3.749102429e-11
3.670314495e-11
3.504860478e-11
3.266472e-11
2.965335495e-11
3.958883304e-11
3.877723799e-11
3.705226662e-11
3.453288492e-11
3.13044715e-11
2.492810922e-11
2.422229176e-11
2.272538896e-11
2.055291246e-11
1.775960466e-11
3.892514157e-12
3.443340463e-12
2.557847512e-12
1.432763936e-12
3.517558482e-13
0
0
0
0
0
0
0
0
0
0
4.11957121e-10
4.029824736e-10
3.836508846e-10
3.548227424e-10
3.184886831e-10
1.119736124e-09
1.10046275e-09
1.05967628e-09
1.000232064e-09
9.240129423e-10
1.662675075e-09
1.634111507e-09
1.573388131e-09
1.48465951e-09
1.370941482e-09
2.297950379e-09
2.267596329e-09
2.202961496e-09
2.108409991e-09
1.987308987e-09
4.036464367e-09
4.009965426e-09
3.95429911e-09
3.873344113e-09
3.769527318e-09
1.704246647e-05
5.949647941e-06
2.392878227e-06
1.064016689e-06
6.308275065e-07
5.340811458e-07
4.56654724e-07
3.317234544e-07
2.554728044e-07
2.217458377e-07
2.308757027e-07
1.729370812e-07
1.004068618e-07
1.122223399e-07
1.028897736e-07
9.12507218e-08
1.199913554e-07
2.076140454e-07
5.468896717e-07
4.229046832e-07
1.835246826e-07
5.70063171e-08
1.442535355e-08
3.090763794e-09
6.046664869e-10
1.243067922e-10
3.660955408e-11
1.315965296e-11
5.332048413e-12
2.135989081e-12
9.241089144e-13
4.464966997e-13
5.17022245e-13
2.303674387e-12
1.28626792e-11
4.110259995e-11
1.024382789e-10
1.655003527e-10
1.782767206e-10
1.028692056e-10
1.577032825e-11
0
0
5.879810915e-14
0
0
0
0
0
0
0
0
0
0
0
0
0
0
9.309979309e-12
2.722087661e-11
2.869333758e-11
1.539504779e-11
0
0
0
2.888762438e-10
8.610901783e-10
1.278558216e-09
1.889386723e-09
3.682001921e-09
7.109119584e-05
0.0007160701229
0.0004172683193
0.0001101843364
4.073250181e-05
1.982957821e-05
0.0001418128865
0.001024641188
0.0003959202643
4.619719855e-05
8.194500494e-06
7.086141727e-05
0.0007515120798
0.0008736147569
9.430263388e-05
3.606255906e-06
2.912449269e-05
0.0002353608969
0.001302757011
0.000304819031
2.284142797e-06
2.064168165e-05
0.0001794881284
0.001429986133
0.0006934107448
1.962583442e-06
1.838289954e-05
0.0001532976344
0.001176228303
0.001077676958
1.648532426e-06
1.419711334e-05
0.0001064514053
0.0007376228758
0.001340229605
1.132345888e-06
8.613863962e-06
5.588749571e-05
0.0003339071893
0.001406630275
8.263143866e-07
6.002988007e-06
3.818622449e-05
0.000230457769
0.001298149859
6.978311962e-07
4.918645752e-06
3.089732512e-05
0.0001844578911
0.001035961923
7.227301631e-07
3.971646879e-06
2.362044188e-05
0.0001326591661
0.0006970363783
4.944765669e-07
2.928150871e-06
1.578862722e-05
8.120144963e-05
0.0003880443386
2.615389296e-07
2.219035469e-06
1.102371565e-05
5.402103102e-05
0.0002486034016
3.162626491e-07
1.959945419e-06
9.184084259e-06
4.397161743e-05
0.0002024211063
2.739063475e-07
1.503655218e-06
7.726330177e-06
3.693880822e-05
0.0001634965592
2.3313887e-07
1.197447151e-06
6.859549111e-06
3.095628145e-05
0.0001305498234
2.978975652e-07
1.507877902e-06
7.270299551e-06
3.199879996e-05
0.0001338187119
5.135898574e-07
2.587329299e-06
1.206292833e-05
5.310742649e-05
0.0002224152618
1.375243074e-06
6.824947217e-06
3.048756407e-05
0.000127694636
0.000512508657
9.561246927e-07
3.641230444e-06
1.196819403e-05
3.427852404e-05
8.187315231e-05
3.686641471e-07
1.089599106e-06
2.75835199e-06
5.922936211e-06
1.021037702e-05
1.015982253e-07
2.376400261e-07
4.806112756e-07
8.226036547e-07
1.129704575e-06
2.270940659e-08
4.251632319e-08
7.004401954e-08
9.999245701e-08
1.1839884e-07
4.280380347e-09
6.560968241e-09
9.169512894e-09
1.154051986e-08
1.258310489e-08
7.433540947e-10
9.681685085e-10
1.191325435e-09
1.371401432e-09
1.424415764e-09
1.354003326e-10
1.492481425e-10
1.599563244e-10
1.66315758e-10
1.628497043e-10
3.732592156e-11
3.690147466e-11
3.527925886e-11
3.292534047e-11
3.08514777e-11
1.302484342e-11
1.238628353e-11
1.077410519e-11
8.00905945e-12
7.866042408e-12
5.247104207e-12
4.998090093e-12
4.297144651e-12
3.397910306e-12
2.538553252e-12
2.074348576e-12
1.858168209e-12
1.675972113e-12
1.433300697e-12
1.153819188e-12
8.997875388e-13
8.307280116e-13
7.544073626e-13
6.565726047e-13
5.421053563e-13
4.284689333e-13
3.855064726e-13
3.30074258e-13
2.703128335e-13
2.311945888e-13
4.479447262e-13
3.500590337e-13
2.813546135e-13
4.859055303e-13
4.189110513e-13
2.245696931e-12
3.741414658e-12
5.972267282e-12
8.277917178e-12
1.011901575e-11
1.472205787e-11
1.948051421e-11
2.613107674e-11
3.351228819e-11
5.08318771e-11
4.216610196e-11
5.501141295e-11
7.813880669e-11
1.095165779e-10
1.482396982e-10
1.160206855e-10
1.476943281e-10
1.895424277e-10
2.40778322e-10
3.157654468e-10
1.877362301e-10
2.325036974e-10
2.970909658e-10
3.657368582e-10
4.408080242e-10
2.039411105e-10
2.507411695e-10
3.03633828e-10
3.635259226e-10
4.289118898e-10
1.212247953e-10
1.53239527e-10
1.900010746e-10
2.321245763e-10
2.769067695e-10
2.502707431e-11
4.45570118e-11
6.985802815e-11
1.026873314e-10
1.31195326e-10
0
4.676370283e-12
9.197093185e-12
1.296591401e-11
1.52206437e-11
0
0
0
0
0
0
0
0
0
0
0
0
0
0
0
0
0
0
0
0
0
0
0
0
0
0
0
0
0
0
0
0
0
0
0
0
0
0
0
0
0
0
0
0
0
0
0
0
0
0
0
0
0
0
0
0
0
0
0
0
0
0
0
0
0
0
0
0
0
0
0
0
0
0
0
0
0
0
0
0
7.217485246e-12
4.552925207e-12
2.409603609e-12
6.407413254e-13
0
2.316582498e-11
1.701116542e-11
1.14195147e-11
6.579989666e-12
2.80390103e-12
2.446703377e-11
1.774577461e-11
1.14541108e-11
5.870240436e-12
3.354470362e-13
1.140850863e-11
5.299115049e-12
1.163000556e-12
0
0
0
0
0
0
1.125356701e-11
0
0
0
3.928773498e-12
2.571088649e-11
0
0
0
0
2.163255646e-12
2.387449368e-10
1.664671193e-10
1.008719259e-10
4.477823902e-11
8.390425525e-12
7.539553074e-10
5.832706298e-10
4.171748825e-10
2.65818271e-10
1.401865555e-10
1.126785193e-09
8.807848856e-10
6.385432072e-10
4.141816597e-10
2.267490767e-10
1.729331229e-09
1.471725851e-09
1.210796487e-09
9.793869025e-10
7.863374797e-10
3.522641645e-09
3.288457612e-09
3.076909086e-09
2.893381544e-09
2.747009357e-09
6.664185361e-07
3.158304661e-08
0
0
0
0
0
0
0
0
0
0
0
0
0
0
0
0
0
0
0
0
0
0
0
0
0
0
0
0
0
0
0
0
0
0
0
0
0
0
0
0
0
0
0
0
0
0
0
0
0
0
0
0
0
0
0
0
0
0
1.144779666e-06
2.839466743e-08
7.76096703e-10
0
0
0
0
0
0
0
0
0
0
0
0
0
0
0
0
0
0
0
0
0
0
0
0
0
0
0
0
0
0
0
0
0
0
0
0
0
0
0
0
0
0
0
0
0
0
0
0
0
0
0
0
0
0
0
0
0
2.575358037e-06
8.750581751e-08
4.076708612e-09
0
0
0
0
0
0
0
0
0
0
0
0
0
0
0
0
0
0
0
0
0
0
0
0
0
0
0
0
0
0
0
0
0
0
0
0
0
0
0
0
0
0
0
0
0
0
0
0
0
0
0
0
0
0
0
0
0
1.135865704e-05
4.811353535e-07
4.181989713e-08
1.395795165e-10
0
0
0
0
0
0
0
0
0
0
0
0
0
0
0
0
0
0
0
0
0
0
0
0
0
0
0
0
0
0
0
0
0
0
0
0
0
0
0
0
0
0
0
0
0
0
0
0
0
0
0
0
0
0
0
0
4.454137028e-05
1.873806846e-06
1.47012185e-07
4.975267604e-09
0
0
0
0
0
0
0
0
0
0
0
0
0
0
0
0
0
0
0
0
0
0
0
0
0
0
0
0
0
0
0
0
0
0
0
0
0
0
0
0
0
0
0
0
0
0
0
0
0
0
0
0
0
0
0
0
0.0001659236566
8.306945475e-06
4.645563264e-07
5.615752821e-08
1.848897974e-09
0
0
0
0
0
0
0
0
0
0
0
0
0
0
0
0
0
0
0
0
0
0
0
0
0
0
0
0
0
0
0
0
0
0
0
0
0
0
0
0
0
0
0
0
0
0
0
0
0
0
0
0
0
0
0
0.0003918277763
2.776210007e-05
1.721264306e-06
1.177280585e-07
1.164503826e-08
0
0
0
0
0
0
0
0
0
0
0
0
0
0
0
0
0
0
0
0
0
0
0
0
0
0
0
0
0
0
0
0
0
0
0
0
0
0
0
0
0
0
0
0
0
0
0
0
0
0
0
0
0
0
0
0.0006875428102
8.629186716e-05
5.915748898e-06
4.079609013e-07
0
0
0
0
0
0
0
0
0
0
0
0
0
0
0
0
0
0
0
0
0
0
0
0
0
0
0
0
0
0
0
0
0
0
0
0
0
0
0
0
0
0
0
0
0
0
0
0
0
0
0
0
0
0
0
0
0.0009903055429
0.0002085801412
1.735045928e-05
1.411173513e-06
1.108562921e-07
0
0
0
0
0
0
0
0
0
0
0
0
0
0
0
0
0
0
0
0
0
0
0
0
0
0
0
0
0
0
0
0
0
0
0
0
0
0
0
0
0
0
0
0
0
0
0
0
0
0
0
0
0
0
0
0.001228607581
0.0003999223924
4.775885461e-05
3.920990954e-06
3.516519888e-07
3.135522062e-08
1.374232507e-09
0
0
0
0
0
0
0
0
0
0
0
0
0
0
0
0
0
0
0
0
0
0
0
0
0
0
0
0
0
0
0
0
0
0
0
0
0
0
0
0
0
0
0
0
0
0
0
0
0
0
0
0
0
0.00134143822
0.0006505886246
0.000125171116
1.086157454e-05
9.307831665e-07
8.289464835e-08
0
0
0
0
0
0
0
0
0
0
0
0
0
0
0
0
0
0
0
0
0
0
0
0
0
0
0
0
0
0
0
0
0
0
0
0
0
0
0
0
0
0
0
0
0
0
0
0
0
0
0
0
0
0
0.00131915354
0.0008982840544
0.0002601660935
2.768076468e-05
2.1967364e-06
1.843801027e-07
1.381532378e-08
1.636308588e-10
0
0
0
0
0
0
0
0
0
0
0
0
0
0
0
0
0
0
0
0
0
0
0
0
0
0
0
0
0
0
0
0
0
0
0
0
0
0
0
0
0
0
0
0
0
0
0
0
0
0
0
0
0.001198868716
0.001108511308
0.0004362119025
6.609992719e-05
5.068894718e-06
3.960677385e-07
3.617780437e-08
3.125994634e-09
0
0
0
0
0
0
0
0
0
0
0
0
0
0
0
0
0
0
0
0
0
0
0
0
0
0
0
0
0
0
0
0
0
0
0
0
0
0
0
0
0
0
0
0
0
0
0
0
0
0
0
0
0.001005393835
0.001256396673
0.0006414528732
0.0001438973057
1.13640296e-05
8.417371906e-07
7.453068029e-08
0
0
0
0
0
0
0
0
0
0
0
0
0
0
0
0
0
0
0
0
0
0
0
0
0
0
0
0
0
0
0
0
0
0
0
0
0
0
0
0
0
0
0
0
0
0
0
0
0
0
0
0
0
0.0007746987811
0.001333357844
0.0008535617523
0.0002507858659
2.058317164e-05
1.477316639e-06
1.303293175e-07
5.784271521e-09
1.693253457e-11
0
0
0
0
0
0
0
0
0
0
0
0
0
0
0
0
0
0
0
0
0
0
0
0
0
0
0
0
0
0
0
0
0
0
0
0
0
0
0
0
0
0
0
0
0
0
0
0
0
0
0
0.0005872481186
0.00136105695
0.001022020998
0.0003212907552
2.514061752e-05
1.762921052e-06
1.560379266e-07
1.814432862e-08
6.926245055e-10
0
0
0
0
0
0
0
0
0
0
0
0
0
0
0
0
0
0
0
0
0
0
0
0
0
0
0
0
0
0
0
0
0
0
0
0
0
0
0
0
0
0
0
0
0
0
0
0
0
0
0
0.0005957676485
0.001422823755
0.001046046187
0.0001701583851
1.267306914e-05
9.462628402e-07
1.010085422e-07
1.566709082e-08
0
0
0
0
0
0
0
0
0
0
0
0
0
0
0
0
0
0
0
0
0
0
0
0
0
0
0
0
0
0
0
0
0
0
0
0
0
0
0
0
0
0
0
0
0
0
0
0
0
0
0
0
0.0009830009408
0.001519729988
0.0008358960163
7.578653506e-05
5.339329672e-06
4.367066281e-07
4.74007457e-08
5.176184006e-09
0
0
0
0
0
0
0
0
0
0
0
0
0
0
0
0
0
0
0
0
0
0
0
0
0
0
0
0
0
0
0
0
0
0
0
0
0
0
0
0
0
0
0
0
0
0
0
0
0
0
0
0
0.001614006512
0.001468668066
0.0001843530685
1.629151922e-05
1.366720734e-06
1.283831014e-07
1.443903505e-08
2.299114253e-10
0
0
0
0
0
0
0
0
0
0
0
0
0
0
0
0
0
0
0
0
0
0
0
0
0
0
0
0
0
0
0
0
0
0
0
0
0
0
0
0
0
0
0
0
0
0
0
0
0
0
0
0
0.0001471829149
0.0001033288376
1.867972404e-05
2.30869204e-06
2.65974392e-07
3.185136425e-08
4.985191074e-09
8.094290636e-10
0
0
0
0
0
0
0
0
0
0
0
0
0
0
0
0
0
0
0
0
0
0
0
0
0
0
0
0
0
0
0
0
0
0
0
0
0
0
0
0
0
0
0
0
0
0
0
0
0
0
0
0
1.302570832e-05
7.781413101e-06
1.816880714e-06
3.103266173e-07
4.726208874e-08
7.412646157e-09
1.235311769e-09
3.166114781e-10
0
0
0
0
0
0
0
0
0
0
0
0
0
0
0
0
0
0
0
0
0
0
0
0
0
0
0
0
0
0
0
0
0
0
0
0
0
0
0
0
0
0
0
0
0
0
0
0
0
0
0
0
1.162503897e-06
6.51912648e-07
1.919781653e-07
4.244976957e-08
8.193014842e-09
1.596917156e-09
3.361768142e-10
8.196030207e-11
0
0
0
0
0
0
0
0
0
0
0
0
0
0
0
0
0
0
0
0
0
0
0
0
0
0
0
0
0
0
0
0
0
0
0
0
0
0
0
0
0
0
0
0
0
0
0
0
0
0
0
0
1.094986735e-07
6.250342577e-08
2.211278528e-08
5.977066766e-09
1.445852971e-09
3.777774633e-10
1.197276701e-10
2.615281453e-11
0
0
0
0
0
0
0
0
0
0
0
0
0
0
0
0
0
0
0
0
0
0
0
0
0
0
0
0
0
0
0
0
0
0
0
0
0
0
0
0
0
0
0
0
0
0
0
0
0
0
0
0
1.122390162e-08
6.718568366e-09
2.728769389e-09
8.788751844e-10
2.7100383e-10
8.102701818e-11
2.818500963e-11
5.448265724e-12
0
0
0
0
0
0
0
0
0
0
0
0
0
0
0
0
0
0
0
0
0
0
0
0
0
0
0
0
0
0
0
0
0
0
0
0
0
0
0
0
0
0
0
0
0
0
0
0
0
0
0
0
1.256321665e-09
7.721437983e-10
3.061765673e-10
1.1977537e-10
4.412971033e-11
1.898463992e-11
7.369930522e-12
0
0
0
0
0
0
6.646565721e-13
0
0
3.663782753e-10
0
0
0
0
0
0
0
0
0
0
0
0
0
0
0
0
0
0
0
0
0
0
0
0
0
0
0
0
0
0
0
0
0
0
0
0
0
0
0
0
0
0
0
1.405963621e-10
9.028127026e-11
4.76655228e-11
2.340561119e-11
1.073970514e-11
4.846416704e-12
1.92249698e-12
3.128362797e-13
0
0
0
0
0
0
0
0
2.991613795e-09
3.931427492e-09
8.003887148e-10
0
0
0
0
0
0
0
0
0
0
0
0
0
0
0
0
0
0
0
0
0
0
0
0
0
0
0
0
0
0
0
0
0
0
0
0
0
0
0
0
0
2.424214125e-11
1.64839945e-11
1.026760983e-11
4.758813008e-12
2.518432608e-12
6.012200968e-13
3.695050749e-13
0
0
0
0
0
0
0
0
0
0
4.316325251e-09
4.378064903e-09
5.180850228e-10
0
0
0
0
0
0
0
0
0
0
0
0
0
0
0
0
0
0
0
0
0
0
0
0
0
0
0
0
0
0
0
0
0
0
0
0
0
0
0
0
6.59458938e-12
4.423223171e-12
2.147459695e-12
1.415698831e-12
6.805614803e-13
3.647108937e-13
2.146439876e-13
0
0
0
0
0
0
0
0
0
0
3.644090498e-10
5.424727592e-09
4.719045811e-09
3.996287748e-10
0
0
0
0
0
0
0
0
0
0
0
0
0
0
0
0
0
0
0
0
0
0
0
0
0
0
0
0
0
0
0
0
0
0
0
0
0
0
0
2.126312957e-12
1.475553645e-12
9.779933761e-13
5.328999923e-13
1.111648779e-13
1.176553131e-13
3.900120473e-14
9.163192222e-15
0
1.232187207e-14
1.404396197e-14
0
0
0
0
0
0
0
9.402075e-09
1.469831179e-08
7.921220012e-09
7.671308219e-10
0
0
0
0
0
0
0
0
0
0
0
0
0
0
0
0
0
0
0
0
0
0
0
0
0
0
0
0
0
0
0
0
0
0
0
0
0
0
9.239679783e-13
6.78235889e-13
4.509111375e-13
2.983988804e-13
1.405130108e-13
1.109739012e-13
2.134636941e-14
3.97792805e-15
0
0
0
0
0
0
0
0
0
0
0
1.330790023e-08
1.734652719e-08
6.91818801e-09
2.174471746e-10
0
0
0
0
0
0
0
0
0
0
0
0
0
0
0
0
0
0
0
0
0
0
0
0
0
0
0
0
0
0
0
0
0
0
0
0
0
4.46505322e-13
3.470897725e-13
2.458781384e-13
1.667243053e-13
1.09231003e-13
5.894916198e-14
0
0
0
0
0
0
0
0
0
0
0
1.259282642e-12
0
0
1.572205203e-08
1.76698993e-08
5.172342957e-09
0
0
0
0
0
0
0
0
0
0
0
0
0
0
0
0
0
0
0
0
0
0
0
0
0
0
0
0
0
0
0
0
0
0
0
0
0
2.083831761e-13
1.797464819e-13
1.171968327e-13
0
1.200078268e-14
1.21680557e-13
3.328825934e-13
0
0
2.58854284e-14
0
0
0
0
0
0
0
0
0
0
2.094871827e-08
3.39635591e-08
2.425867071e-08
5.034756184e-09
0
0
0
0
0
0
0
0
0
0
0
0
0
0
0
0
0
0
0
0
0
0
0
0
0
0
0
0
0
0
0
0
0
0
0
0
0
3.898407159e-13
2.044408664e-12
0
0
0
0
5.607168438e-12
1.551331572e-11
5.381829691e-11
3.671037656e-11
9.759059722e-12
1.145341361e-11
6.785343099e-12
0
0
0
0
1.371345326e-12
0
0
2.79118765e-08
3.863359123e-08
2.091023391e-08
2.95595677e-09
0
0
0
0
0
0
0
0
0
0
0
0
0
0
0
0
0
0
0
0
0
0
0
0
0
0
0
0
0
0
0
0
0
0
0
2.025749906e-11
3.376412332e-11
4.03587773e-11
7.143192354e-11
8.9182175e-11
1.259514091e-10
1.44346018e-10
1.934345589e-10
2.67852926e-10
3.216031793e-10
3.10356413e-10
2.525885286e-10
1.092920015e-10
8.178924216e-11
0
0
0
0
0
0
0
0
3.038121147e-08
3.610076353e-08
1.41272918e-08
1.006029927e-09
0
0
0
0
0
0
0
0
0
0
0
0
0
0
0
0
0
0
0
0
0
0
0
0
0
0
0
0
0
0
0
0
0
0
7.721687045e-11
1.046605045e-10
1.861932978e-10
2.911501089e-10
3.88225703e-10
4.954192367e-10
5.880510005e-10
6.63598248e-10
7.48702841e-10
7.878636427e-10
7.507391584e-10
6.450159919e-10
4.304983214e-10
2.505077887e-10
0
0
0
0
0
0
0
0
3.231095178e-08
5.200806975e-08
4.067450775e-08
1.055169112e-08
1.108978246e-10
0
0
0
0
0
0
0
0
0
0
0
0
0
0
0
0
0
0
0
0
0
0
0
0
0
0
0
0
0
0
0
0
0
1.923619617e-10
2.850269939e-10
4.329444744e-10
6.207124039e-10
7.975641336e-10
9.633407311e-10
1.105886136e-09
1.174365372e-09
1.25189499e-09
1.251573567e-09
1.161484994e-09
9.987952901e-10
7.229867144e-10
4.214594568e-10
0
0
0
0
0
0
0
0
0
4.297100286e-08
5.910857017e-08
3.617958507e-08
6.447600712e-09
0
0
0
0
0
0
0
0
0
0
0
0
0
0
0
0
0
0
0
0
0
0
0
0
0
0
0
0
0
0
0
0
0
3.987975378e-10
5.350681191e-10
7.36743579e-10
9.292867684e-10
1.108028466e-09
1.269142856e-09
1.397532041e-09
1.442453713e-09
1.495069188e-09
1.431510823e-09
1.280542e-09
1.043018994e-09
6.95228347e-10
3.375965365e-10
1.670909088e-11
0
0
0
0
0
0
0
0
4.394656249e-08
7.675115834e-08
7.303020822e-08
3.108339204e-08
3.616134007e-09
0
0
0
0
0
0
0
0
0
0
0
0
0
0
0
0
0
0
0
0
0
0
0
0
0
0
0
0
0
0
0
0
5.265392652e-10
6.585521574e-10
8.48758794e-10
1.014423198e-09
1.154709621e-09
1.269456574e-09
1.346803142e-09
1.340243554e-09
1.342599052e-09
1.229503504e-09
1.049739046e-09
7.927982311e-10
4.748306689e-10
1.912979438e-10
5.271691412e-11
0
0
0
0
0
0
0
0
0
6.456598832e-08
9.38046769e-08
7.069702598e-08
2.019750867e-08
1.057773522e-09
0
0
0
0
0
0
0
0
0
0
0
0
0
0
0
0
0
0
0
0
0
0
0
0
0
0
0
0
0
0
0
5.059861763e-10
6.384017684e-10
7.653657724e-10
8.759452923e-10
9.738748038e-10
1.024537045e-09
1.053122863e-09
1.024912432e-09
9.558943857e-10
8.118991403e-10
6.439735508e-10
4.261951196e-10
1.902955105e-10
1.23675238e-11
0
0
0
0
0
0
0
0
0
0
4.250059847e-08
1.030132723e-07
1.109452068e-07
6.328395547e-08
1.226820803e-08
4.448209531e-12
0
0
0
0
0
0
0
0
0
0
0
0
0
0
0
0
0
0
0
0
0
0
0
0
0
0
0
0
0
0
3.581658321e-10
4.357345195e-10
5.047691744e-10
5.595550215e-10
6.061641966e-10
6.11581992e-10
6.10490888e-10
5.659986651e-10
4.939660495e-10
3.759770941e-10
2.673810433e-10
1.337732767e-10
2.284824039e-11
0
0
0
0
0
0
0
0
0
0
0
1.107559476e-08
9.470690703e-08
1.342688478e-07
1.130485416e-07
4.791441632e-08
6.06892648e-09
0
0
0
0
0
0
0
0
0
0
0
0
0
0
0
0
0
0
0
0
0
0
0
0
0
0
0
0
0
0
1.59215856e-10
1.900478243e-10
2.160584971e-10
2.434175208e-10
2.454684663e-10
2.324055491e-10
2.251461639e-10
1.895540627e-10
1.466434419e-10
7.769207074e-11
4.144384259e-11
0
0
0
0
0
0
0
0
0
0
0
0
0
0
4.671314433e-08
1.34424149e-07
1.526661094e-07
1.036478188e-07
3.07782965e-08
2.109048835e-09
0
0
0
0
0
0
0
0
0
0
0
0
0
0
0
0
0
0
0
0
0
0
0
0
0
0
0
0
0
2.00601384e-11
2.372510308e-11
2.819524467e-11
4.135866937e-11
3.36200696e-11
3.26045189e-11
1.948832326e-11
1.331458936e-11
1.056723706e-11
0
0
0
0
0
0
0
0
0
0
0
0
0
0
0
0
2.837703306e-08
1.270541826e-07
1.758007994e-07
1.57026668e-07
8.305265484e-08
1.609671291e-08
1.11851977e-10
0
0
0
0
0
0
0
0
0
0
0
0
0
0
0
0
0
0
0
0
0
0
0
0
0
0
0
0
0
0
4.648165071e-14
8.360394281e-14
0
0
0
0
0
0
0
0
0
0
0
0
0
0
0
0
0
0
0
0
0
3.397794522e-09
6.743364078e-08
1.700160594e-07
1.949520887e-07
1.462477019e-07
5.949053949e-08
7.597074267e-09
0
0
0
0
0
0
0
0
0
0
0
0
0
0
0
0
0
0
0
0
0
0
0
0
0
0
0
0
0
0
0
0
0
0
0
0
0
0
0
0
0
0
0
0
0
0
0
0
0
0
0
0
0
0
5.133085988e-08
1.653566132e-07
2.207124553e-07
2.022884408e-07
1.240394025e-07
3.616941415e-08
2.381277702e-09
0
0
0
0
0
0
0
0
0
0
0
0
0
0
0
0
0
0
0
0
0
0
0
0
0
0
0
0
0
0
0
0
0
0
0
0
0
0
0
0
0
0
0
0
0
0
0
0
0
0
0
0
0
3.075766213e-08
1.149728471e-07
2.221751388e-07
2.447290699e-07
1.920432874e-07
9.40440639e-08
1.751289689e-08
6.45395338e-11
0
0
0
0
0
0
0
0
0
0
0
0
0
0
0
0
0
0
0
0
0
0
0
0
0
0
0
0
0
0
0
0
0
0
0
0
0
0
0
0
0
4.791383401e-13
0
0
0
0
0
0
0
0
0
0
1.800587095e-08
9.364206892e-08
2.156208593e-07
2.702769185e-07
2.48921834e-07
1.659632052e-07
6.262481901e-08
7.221299231e-09
0
0
0
0
0
0
0
0
0
0
0
0
0
0
0
0
0
0
0
0
0
0
0
0
0
0
0
0
0
0
0
0
0
6.881256113e-13
0
3.583507845e-11
8.161552272e-11
1.243627759e-10
1.465018238e-10
2.200426397e-10
3.431385021e-10
2.7492963e-10
2.074288679e-10
5.910326882e-10
1.172332883e-09
1.074871566e-09
4.065178662e-10
0
3.702648707e-10
1.710378183e-09
0
0
1.296223429e-08
7.554038306e-08
1.80658704e-07
2.76638577e-07
2.926900707e-07
2.351200607e-07
1.309898767e-07
3.476327848e-08
1.598908688e-09
0
0
0
0
0
0
0
0
0
0
0
0
0
0
0
0
0
0
0
0
0
0
0
0
0
0
0
0
6.256366704e-13
8.438883498e-12
3.219953113e-11
7.730156286e-11
1.44654392e-10
2.358896227e-10
3.953642376e-10
6.111398629e-10
8.798648686e-10
1.198723067e-09
1.672181132e-09
2.299240605e-09
2.840611484e-09
3.518106346e-09
4.794094974e-09
6.445043688e-09
7.585329308e-09
7.05383523e-09
6.939062316e-09
7.594744272e-09
7.904248801e-09
5.177342474e-09
7.866241986e-10
2.782565232e-09
4.809031834e-08
1.356673087e-07
2.595851808e-07
3.131777455e-07
2.89995352e-07
2.04301319e-07
9.114740181e-08
1.479146143e-08
0
0
0
0
0
0
0
0
0
0
0
0
0
0
0
0
0
0
0
0
0
0
0
0
0
0
0
5.484886945e-12
2.305773223e-11
6.342985923e-11
1.320556072e-10
2.376160468e-10
3.877633524e-10
5.994709513e-10
9.006905029e-10
1.306819217e-09
1.818439773e-09
2.45016432e-09
3.328999213e-09
4.440155162e-09
5.536659205e-09
6.840258818e-09
8.679439259e-09
1.093234393e-08
1.276333929e-08
1.278183702e-08
1.352105142e-08
1.430637704e-08
1.550402965e-08
1.617085455e-08
1.036118603e-08
1.809997481e-08
4.013964526e-08
1.120355191e-07
2.32239617e-07
3.186624645e-07
3.316630939e-07
2.723267916e-07
1.649791238e-07
5.532381148e-08
4.58888503e-09
0
0
0
0
0
0
0
0
0
0
0
0
0
0
0
0
0
0
0
0
0
0
0
0
0
5.851629151e-12
2.19592723e-11
5.618211976e-11
1.17258674e-10
2.1638559e-10
3.605631015e-10
5.573706904e-10
8.475153136e-10
1.246173106e-09
1.768867706e-09
2.408452628e-09
3.229844768e-09
4.318822409e-09
5.646564596e-09
6.974200868e-09
8.534469611e-09
1.054477668e-08
1.281785209e-08
1.480594533e-08
1.502059213e-08
1.598823045e-08
1.678867256e-08
1.780171448e-08
1.777552422e-08
1.220716594e-08
1.281472827e-08
2.083779255e-08
7.318809111e-08
1.68103162e-07
2.960716723e-07
3.508493121e-07
3.270584658e-07
2.389791651e-07
1.201068652e-07
2.625486344e-08
2.008193266e-10
0
0
0
0
0
0
0
0
0
0
0
0
0
0
0
0
0
0
0
0
0
0
0
1.577701458e-12
1.057369565e-11
3.02796307e-11
6.88624568e-11
1.361819096e-10
2.409643628e-10
3.909543225e-10
6.012482811e-10
8.962256728e-10
1.303083319e-09
1.831606303e-09
2.459512827e-09
3.313232854e-09
4.432763542e-09
5.77514887e-09
7.070200328e-09
8.62436317e-09
1.055031396e-08
1.277060479e-08
1.477944999e-08
1.583154344e-08
1.753877466e-08
1.937285909e-08
2.171661224e-08
2.3676327e-08
2.29685355e-08
2.147106032e-08
2.697993961e-08
6.909540379e-08
1.582008146e-07
2.953812221e-07
3.755968166e-07
3.813533396e-07
3.145680927e-07
1.994316917e-07
7.668373357e-08
8.527068118e-09
0
0
0
0
0
0
0
0
0
0
0
0
0
0
0
0
0
0
0
0
0
0
0
4.861695894e-13
6.859800565e-12
2.193794629e-11
5.471577635e-11
1.113194321e-10
1.960678007e-10
3.189824035e-10
4.941352038e-10
7.470717027e-10
1.093292619e-09
1.545759976e-09
2.085707679e-09
2.843984527e-09
3.868767354e-09
5.110381862e-09
6.323264139e-09
7.842181533e-09
9.818354988e-09
1.225302747e-08
1.475909338e-08
1.675206076e-08
1.948182882e-08
2.304866559e-08
2.703089947e-08
3.18792848e-08
3.676301576e-08
3.550980521e-08
4.693798451e-08
6.920753072e-08
1.363491717e-07
2.423554353e-07
3.714461715e-07
4.182813294e-07
3.815382458e-07
2.799883736e-07
1.493805914e-07
3.946193045e-08
9.217285535e-10
0
0
0
0
0
0
0
0
0
0
0
0
0
0
0
0
0
0
0
0
0
0
0
0
6.692857415e-12
2.490495369e-11
5.629168021e-11
1.048784621e-10
1.789723956e-10
2.883196431e-10
4.537774807e-10
6.923620254e-10
1.008418374e-09
1.384921624e-09
1.975981474e-09
2.8145573e-09
3.863440571e-09
4.907220267e-09
6.322939362e-09
8.312343696e-09
1.094946769e-08
1.398542326e-08
1.701232998e-08
1.98340069e-08
2.403449121e-08
2.884748376e-08
3.474163037e-08
4.032980691e-08
4.219674411e-08
5.11099686e-08
6.659833083e-08
1.246449897e-07
2.259101948e-07
3.672627192e-07
4.410228583e-07
4.342888935e-07
3.548116603e-07
2.297215121e-07
9.751370239e-08
1.385872264e-08
0
0
0
0
0
0
0
0
0
0
0
0
0
0
0
0
0
0
0
0
0
0
0
0
0
3.372562934e-13
7.067504061e-12
2.053492846e-11
3.744618207e-11
7.03767071e-11
1.246209112e-10
2.075068761e-10
3.051505886e-10
4.634125826e-10
7.90624274e-10
1.313579697e-09
1.998448981e-09
2.652772284e-09
3.685653649e-09
5.332026549e-09
7.680576493e-09
1.055125165e-08
1.34954534e-08
1.632309323e-08
2.07105766e-08
2.609025639e-08
3.313273128e-08
4.087727376e-08
4.748785048e-08
5.573765734e-08
7.617144055e-08
1.121603778e-07
1.928652286e-07
3.069279591e-07
4.307312635e-07
4.653826991e-07
4.176049566e-07
3.08624952e-07
1.7278993e-07
5.23838875e-08
1.710053465e-09
0
0
0
0
0
0
0
0
0
0
0
0
0
0
0
0
0
0
0
0
0
0
0
0
0
0
5.67671147e-15
0
0
1.354566812e-13
1.842570319e-12
0
0
0
4.898249576e-11
1.729748874e-10
1.891593978e-10
5.150098723e-10
1.38347352e-09
2.862933339e-09
4.865748515e-09
6.93198968e-09
9.475131055e-09
1.371191827e-08
1.926022569e-08
2.629169062e-08
3.460811568e-08
4.346523005e-08
4.662026312e-08
6.193614065e-08
8.56353001e-08
1.53839128e-07
2.632728767e-07
4.072509739e-07
4.768252879e-07
4.645621863e-07
3.80745435e-07
2.524841139e-07
1.156808719e-07
1.965344111e-08
0
0
0
0
0
0
0
0
0
0
0
0
0
0
0
0
0
0
0
0
0
0
0
0
2.466548608e-14
0
0
0
0
0
6.143717779e-14
0
0
0
0
0
0
0
0
0
4.339178052e-10
1.226649821e-09
3.043370477e-09
6.92677521e-09
1.2559144e-08
1.921451029e-08
2.733476612e-08
3.536162204e-08
4.058828682e-08
5.418905619e-08
7.400622605e-08
1.357920999e-07
2.425380488e-07
3.944151729e-07
4.8925978e-07
5.079981857e-07
4.499002852e-07
3.340285002e-07
1.935112513e-07
6.553488739e-08
3.506649467e-09
0
0
0
0
0
0
0
0
0
0
0
0
0
0
0
0
0
0
0
0
0
0
0
0
0
0
0
0
0
0
0
0
0
0
0
0
0
0
0
0
0
4.6542295e-10
3.959334747e-09
9.793838334e-09
1.716286359e-08
2.670468202e-08
3.737875165e-08
4.72677861e-08
6.024011789e-08
8.57344283e-08
1.238024326e-07
2.075528446e-07
3.291495651e-07
4.719492113e-07
5.320027633e-07
5.06657146e-07
4.107640643e-07
2.740136172e-07
1.325699006e-07
2.760407604e-08
0
0
0
0
0
0
0
0
0
0
0
0
0
0
0
0
0
0
0
0
0
0
0
0
0
0
0
0
2.955503837e-13
0
0
0
0
0
0
0
0
0
0
0
0
1.396186682e-09
5.530311993e-09
1.203396308e-08
2.019726429e-08
3.044938524e-08
4.196590552e-08
5.248129992e-08
6.280925656e-08
8.396289052e-08
1.137710262e-07
1.888482532e-07
3.071919412e-07
4.633883525e-07