/*--------------------------------*- C++ -*----------------------------------*\
  =========                 |
  \\      /  F ield         | OpenFOAM: The Open Source CFD Toolbox
   \\    /   O peration     | Website:  https://openfoam.org
    \\  /    A nd           | Version:  10
     \\/     M anipulation  |
\*---------------------------------------------------------------------------*/
FoamFile
{
    format      ascii;
    class       volScalarField;
    location    "0.02499901733";
    object      O2;
}
// * * * * * * * * * * * * * * * * * * * * * * * * * * * * * * * * * * * * * //

dimensions      [0 0 0 0 0 0 0];

internalField   nonuniform List<scalar> 
5170
(
0.1965999902
0.1965999903
0.1965999904
0.1965999911
0.1965999993
0.1965999806
0.1965999806
0.1965999809
0.1965999821
0.1965999889
0.196599971
0.1965999711
0.1965999714
0.1965999728
0.1965999785
0.1965999614
0.1965999616
0.196599962
0.1965999635
0.196599968
0.196599952
0.1965999522
0.1965999526
0.1965999542
0.1965999575
0.1965999427
0.1965999428
0.1965999433
0.1965999447
0.196599947
0.1965999334
0.1965999336
0.1965999341
0.1965999352
0.1965999364
0.1965999242
0.1965999244
0.1965999249
0.1965999257
0.1965999257
0.1965999152
0.1965999153
0.1965999157
0.1965999162
0.1965999151
0.1965999061
0.1965999063
0.1965999065
0.1965999065
0.1965999043
0.1965998972
0.1965998973
0.1965998974
0.1965998969
0.1965998936
0.1965998883
0.1965998883
0.1965998884
0.1965998871
0.1965998828
0.1965998794
0.1965998795
0.1965998793
0.1965998774
0.196599872
0.1965998706
0.1965998706
0.1965998702
0.1965998675
0.1965998612
0.1965998619
0.1965998618
0.1965998611
0.1965998577
0.1965998504
0.1965998531
0.196599853
0.196599852
0.1965998477
0.1965998397
0.1965998445
0.1965998442
0.1965998428
0.1965998377
0.1965998289
0.1965998358
0.1965998354
0.1965998336
0.1965998277
0.1965998181
0.1965998272
0.1965998265
0.1965998234
0.1965998107
0.1965997794
0.1965998081
0.1965997595
0.196599348
0.1965965048
0.1965837763
0.05307242694
0.05306622252
0.05306031635
0.05304843695
0.05300141613
0.05263567833
0.05266561799
0.0526500217
0.05264130801
0.05255395546
0.05243195521
0.05247652479
0.05245845443
0.05244812547
0.05237363858
0.05232044784
0.05236407232
0.05235158603
0.05233394057
0.05226876529
0.0522394706
0.0522819537
0.05227769801
0.05226059796
0.05220651021
0.05219194626
0.05222817795
0.0522279796
0.05221052429
0.05217170718
0.05216519098
0.05218981952
0.05218974336
0.0521686438
0.05208735721
0.05207000002
0.05215734315
0.05216113699
0.05213046409
0.05196074698
0.05196287945
0.05209685387
0.05210835865
0.05201520066
0.05197806829
0.05198134663
0.05198768875
0.05199974896
0.05197955537
0.0519554125
0.0519687918
0.05198579085
0.05199157619
0.05197307985
0.05194931613
0.05196663823
0.05197884598
0.05197947364
0.05195467047
0.05193261275
0.05195546841
0.05196280082
0.05196203754
0.0519419009
0.0519104893
0.05193650439
0.05195371274
0.05195202868
0.05192819808
0.05188774575
0.0519128195
0.05194080138
0.0519395169
0.05190978774
0.05186564443
0.05188756519
0.05192142308
0.05192083108
0.0518886237
0.05184552018
0.05186337179
0.05189833239
0.05189828482
0.05186705983
0.05182845731
0.0518424491
0.05187435228
0.05187454825
0.05184698987
0.0518155179
0.05180007148
0.05184669972
0.05185228583
0.05183425211
0.05181702019
0.04859143517
0.05136288062
0.05187813173
0.05215064339
0.05260537159
0.1965994167
0.1965967379
0.1965523863
0.1958926141
0.1871291514
0.1965976443
0.1965851851
0.1964205871
0.1947162469
0.1822277462
0.1965925417
0.1965557303
0.1961569962
0.1930786435
0.1784592478
0.1965806796
0.1964948231
0.1957129297
0.1910165759
0.1752777346
0.1965559724
0.1963800624
0.1950154161
0.1886099547
0.1725309579
0.1965071424
0.1961708132
0.1939810662
0.1860114219
0.1700005911
0.196415731
0.1958163897
0.1925912059
0.1833296344
0.167474826
0.1962528705
0.1952539492
0.1908490198
0.1806106466
0.1649517956
0.1959719288
0.1944058496
0.1887844813
0.177887837
0.1624734892
0.1955019754
0.1931984928
0.186439223
0.1751297465
0.1599928174
0.194733491
0.1915518181
0.1838529407
0.17233689
0.1575205488
0.193412255
0.189400408
0.1810679352
0.1694656483
0.1549912678
0.1914340655
0.1867802722
0.178075427
0.1664935974
0.152392705
0.1885810928
0.1836252821
0.1748063619
0.1633557196
0.149652881
0.1847225877
0.1798583864
0.1711762474
0.1599797567
0.1467189114
0.1800514665
0.1754508921
0.1670664887
0.1562394239
0.1434998011
0.1743210399
0.1701412568
0.162278981
0.1520042185
0.1398940933
0.1678517476
0.1641585474
0.1569357794
0.1472712344
0.1357697885
0.1610006213
0.1577126286
0.1511547637
0.1423307832
0.1319025829
0.1539088441
0.1511851735
0.1457951228
0.138742698
0.1308416537
0.1479762575
0.1462659455
0.1429815965
0.1389291155
0.134782543
0.1470897196
0.1464787433
0.1453488858
0.1441043135
0.1431363985
0.1526514679
0.1526570836
0.1527724991
0.1531523693
0.1539571674
0.1621461115
0.1623986096
0.1630113174
0.164021788
0.1654616346
0.1727314074
0.173024709
0.1737010275
0.174749912
0.1761593913
0.1825551048
0.1828138717
0.1833986017
0.1842923339
0.1854723767
0.1904687748
0.1906743267
0.1911396913
0.1918467652
0.1927738439
0.1968140979
0.1969727235
0.1973304593
0.1978723041
0.1985808023
0.2018154184
0.2019360817
0.2022073448
0.2026176391
0.2031539517
0.2057312777
0.2058226811
0.2060276875
0.2063376626
0.206743257
0.2087943831
0.2088638494
0.209019359
0.2092545753
0.2095629192
0.2111985492
0.2112518893
0.2113711119
0.211551562
0.2117886464
0.2130986474
0.2131402888
0.2132332126
0.2133739576
0.2135593064
0.2146124837
0.2146456733
0.2147196076
0.2148316481
0.2149795138
0.2158263855
0.2158534527
0.2159136242
0.2160048286
0.2161254203
0.216804399
0.2168269962
0.2168771179
0.2169530816
0.2170536733
0.2175971377
0.2176164313
0.217659123
0.2177238033
0.2178095533
0.2182468309
0.2182636311
0.2183007236
0.2183568941
0.2184314271
0.2187888944
0.2188037588
0.2188365143
0.2188860946
0.2189519264
0.2192519065
0.2192652149
0.2192944992
0.2193388102
0.219397676
0.2196576608
0.2196696764
0.2196960885
0.2197360455
0.219789151
0.2200218188
0.2200327289
0.2200566955
0.2200929506
0.2201411554
0.2203550788
0.2203650238
0.2203868625
0.2204199003
0.220463844
0.220664476
0.2206735669
0.2206935267
0.2207237261
0.2207639089
0.2209545648
0.2209628932
0.2209811785
0.221008849
0.2210456794
0.2212283202
0.2212359645
0.2212527483
0.2212781518
0.2213119757
0.2214877603
0.2214947884
0.2215102206
0.2215335829
0.2215646987
0.2217343298
0.2217408014
0.2217550132
0.2217765322
0.2218052012
0.2219691339
0.2219751019
0.221988209
0.2220080593
0.2220345124
0.2221930768
0.2221985881
0.2222106936
0.2222290304
0.2222534729
0.2224069575
0.2224120544
0.2224232505
0.2224402125
0.2224628278
0.2226113535
0.222616073
0.2226264417
0.2226421529
0.2226631052
0.2228069375
0.2228113135
0.2228209285
0.2228355
0.2228549365
0.222994262
0.2229983246
0.2230072519
0.2230207831
0.2230388357
0.223173832
0.2231776082
0.2231859068
0.223198487
0.2232152737
0.2233461088
0.2233496228
0.2233573459
0.2233690553
0.2233846827
0.2235115107
0.2235147844
0.2235219798
0.2235328905
0.2235474545
0.2236704243
0.2236734774
0.2236801886
0.2236903662
0.2237039537
0.2238232049
0.2238260553
0.2238323212
0.2238418246
0.2238545138
0.2239701963
0.2239728602
0.2239787165
0.2239875996
0.2239994623
0.2241117105
0.2241142024
0.2241196812
0.2241279923
0.2241390925
0.2242480636
0.2242503971
0.2242555279
0.2242633117
0.2242737091
0.2243795084
0.2243816955
0.2243865045
0.2243938008
0.2244035481
0.224506332
0.224508384
0.2245128962
0.2245197428
0.2245288904
0.2246286954
0.2246306219
0.2246348585
0.2246412874
0.2246498777
0.224746932
0.2247487426
0.2247527245
0.2247587674
0.2247668427
0.224861021
0.2248627235
0.2248664676
0.2248721501
0.2248797444
0.224971309
0.224972912
0.2249764375
0.2249817885
0.2249889405
0.2250760707
0.2250775808
0.225080902
0.2250859432
0.2250926815
0.2251660272
0.2251674617
0.225170617
0.2251754067
0.2251818094
0.1619969981
0.1606420473
0.1595292812
0.1582331605
0.1568302426
0.1552778606
0.1535209422
0.1516603708
0.1497894022
0.147851533
0.1458769857
0.1437943152
0.1416248102
0.1393144825
0.1367984192
0.1340404198
0.1309110733
0.1272027846
0.1242467355
0.1254657791
0.132276322
0.1428113704
0.1547723677
0.1666231881
0.1772509947
0.1863743946
0.1934769745
0.1991178929
0.2035615354
0.207052819
0.2097995458
0.2119717187
0.2137033836
0.2150952497
0.21622048
0.2171335325
0.2178780946
0.2184913668
0.2190051395
0.2194454494
0.2198323784
0.2201804783
0.2204997457
0.2207967739
0.2210758269
0.2213396792
0.2215901968
0.2218287043
0.2220562069
0.222273525
0.2224813866
0.222680304
0.2228708951
0.2230536614
0.223229063
0.2233975223
0.2235594226
0.2237151213
0.2238649449
0.2240092154
0.2241482201
0.2242822599
0.2244115653
0.2245364151
0.2246569449
0.2247734869
0.2248859935
0.224994826
0.2250982272
0.2251870794
0.111433174
0.02476976241
0.05065917545
0.07092465945
0.113299082
0.1214239536
0.05505944065
0.03105340154
0.07673745648
0.1363490705
0.1259106637
0.07106592537
0.01899019402
0.06894806214
0.1408464889
0.1282082796
0.0780406017
0.01928693665
0.05361133855
0.1237335755
0.1293871815
0.0830487385
0.02963381456
0.03749997111
0.09910263241
0.1299040279
0.08729796309
0.03982345542
0.02539136508
0.07639706833
0.1298868551
0.09044703557
0.04663559633
0.0183384908
0.05597655785
0.1295109604
0.0927513915
0.05185847376
0.01630482203
0.03991781
0.1289360966
0.09451466477
0.05638053514
0.0199128503
0.02864766033
0.1281300022
0.09570478796
0.05972070312
0.02355096511
0.0204735396
0.1271441539
0.09640729742
0.0621968771
0.02686795661
0.01508360122
0.1259361039
0.09669790744
0.06425143108
0.03043449266
0.01254480403
0.1245772179
0.09682236451
0.0663342898
0.03474703378
0.01372246001
0.1230624265
0.09676101272
0.06809206895
0.03837389454
0.01577302216
0.1212984046
0.09631849933
0.06923697888
0.04110346906
0.01777514284
0.1193265837
0.0957090756
0.07017595622
0.04348651062
0.0199570265
0.1170007155
0.09461489143
0.0703015496
0.04459784879
0.02131385519
0.1139964426
0.09244062047
0.06874182671
0.04336611831
0.02097625464
0.1125167757
0.09367246206
0.0727594554
0.04786875284
0.02207278302
0.1173841159
0.106690746
0.09850892613
0.09418641844
0.09709685615
0.1284695146
0.12556294
0.1265051681
0.1319456721
0.1421891568
0.1421328427
0.1437684168
0.148471797
0.1560474258
0.1658467579
0.1557076301
0.1591629104
0.1645704292
0.1714984621
0.1793384015
0.1680531864
0.1716539676
0.1764773333
0.1821264801
0.188157439
0.1786192386
0.1817314821
0.1856453951
0.1900531046
0.1946559659
0.1875157009
0.1899921441
0.1930160529
0.1963631731
0.1998298305
0.1943700715
0.19628127
0.1985921592
0.2011394427
0.2037800578
0.1998039506
0.2012621408
0.2030206326
0.2049618647
0.2069844168
0.2040858571
0.2051965188
0.2065369231
0.2080229525
0.2095822677
0.2074544632
0.2083033806
0.2093303341
0.2104754618
0.2116870753
0.2101096255
0.210763665
0.2115573036
0.2124481258
0.2133991791
0.2122143006
0.2127247249
0.2133459849
0.2140480287
0.2148043627
0.2138966383
0.2143019218
0.2147963651
0.2153585643
0.2159693871
0.2152526004
0.215580974
0.2159819926
0.2164402765
0.2169418766
0.2163516745
0.2166235292
0.2169552817
0.2173357825
0.2177547602
0.2172455458
0.2174755205
0.217755468
0.218077239
0.2184331931
0.2179758088
0.2181743371
0.2184150992
0.2186920808
0.2189995321
0.2185781068
0.2187525299
0.2189631699
0.2192055249
0.2194751994
0.2190831205
0.2192385353
0.219425492
0.2196405534
0.2198802904
0.2195161444
0.2196560695
0.21982388
0.2200168862
0.2202323502
0.219896797
0.2200236928
0.2201755676
0.2203502611
0.2205455348
0.2202393576
0.2203550027
0.2204932604
0.2206523525
0.2208304097
0.2205536675
0.2206594136
0.2207857916
0.2209313076
0.2210943739
0.2208462286
0.2209431589
0.2210590193
0.221192535
0.2213423396
0.2211212443
0.2212102646
0.2213167212
0.2214395138
0.2215774561
0.2213814434
0.2214633349
0.2215613305
0.2216744731
0.2218017261
0.2216286519
0.2217040981
0.2217944477
0.2218988634
0.2220164353
0.2218641593
0.2219337651
0.2220171844
0.2221136817
0.2222224555
0.2220889387
0.2221532421
0.2222303652
0.2223196601
0.2224204191
0.2223037821
0.222363264
0.2224346569
0.2225173882
0.2226108319
0.2225093926
0.2225644844
0.2226306541
0.222707395
0.2227941521
0.2227062586
0.2227573482
0.222818752
0.2228900206
0.222970661
0.222894979
0.2229424147
0.2229994633
0.223065725
0.2231407613
0.2230760361
0.2231201307
0.2231731931
0.2232348672
0.2233047621
0.2232498736
0.2232909084
0.2233403168
0.2233977811
0.2234629523
0.2234168998
0.2234551286
0.2235011832
0.2235547794
0.2236156054
0.2235774849
0.2236131367
0.2236561082
0.2237061455
0.2237629689
0.2237319756
0.2237652583
0.2238053935
0.2238521534
0.2239052872
0.2238806877
0.2239117889
0.2239493105
0.2239930477
0.2240427755
0.2240239349
0.2240530267
0.224088139
0.2241290878
0.2241756704
0.2241619955
0.2241892322
0.224222119
0.2242604899
0.2243041626
0.2242951644
0.2243206893
0.2243515213
0.2243875106
0.2244284927
0.2244236642
0.2244476044
0.2244765331
0.2245103152
0.2245488023
0.2245477706
0.224570248
0.2245974188
0.2246291605
0.2246653386
0.2246676097
0.2246887266
0.2247142614
0.2247441031
0.2247781298
0.2247835128
0.224803372
0.2248273938
0.2248554774
0.2248875125
0.224895423
0.2249141057
0.2249367114
0.2249631485
0.224993317
0.2250037064
0.225021307
0.2250426095
0.2250675304
0.2250959786
0.2251065957
0.2251231835
0.2251432659
0.225166767
0.2251936046
0.2251950316
0.2252108004
0.2252298954
0.2252522467
0.2252777785
0.2160224301
0.2290872586
0.2299226945
0.2299857675
0.2299955343
0.2299982697
0.2299993055
0.2299997304
0.2299999055
0.2299999763
0.2300000044
0.2300000154
0.2300000197
0.2300000214
0.2300000221
0.2300000224
0.2300000226
0.2300000226
0.2300000227
0.2300000228
0.2300000229
0.2300000229
0.2300000229
0.2300000229
0.2300000229
0.230000023
0.230000023
0.230000023
0.230000023
0.230000023
0.230000023
0.230000023
0.230000023
0.230000023
0.230000023
0.230000023
0.2300000231
0.2300000231
0.2300000231
0.2300000231
0.2300000231
0.2300000231
0.2300000231
0.2300000231
0.2300000231
0.2300000231
0.2300000231
0.2300000231
0.2300000231
0.2300000231
0.2300000231
0.2300000231
0.2300000231
0.2300000231
0.2300000231
0.2300000232
0.2300000232
0.2300000234
0.2300000239
0.2300000245
0.2062712585
0.2274748863
0.2297865679
0.2299682087
0.2299911103
0.229996554
0.229998494
0.2299993298
0.2299997125
0.2299998888
0.2299999692
0.2300000053
0.2300000215
0.2300000288
0.230000032
0.2300000335
0.2300000343
0.2300000349
0.2300000353
0.2300000356
0.2300000358
0.2300000359
0.230000036
0.2300000361
0.2300000362
0.2300000362
0.2300000363
0.2300000363
0.2300000364
0.2300000364
0.2300000364
0.2300000365
0.2300000365
0.2300000365
0.2300000366
0.2300000366
0.2300000366
0.2300000367
0.2300000367
0.2300000367
0.2300000367
0.2300000367
0.2300000368
0.2300000368
0.2300000368
0.2300000368
0.2300000368
0.2300000369
0.2300000369
0.2300000369
0.2300000369
0.2300000369
0.2300000369
0.2300000369
0.230000037
0.230000037
0.2300000373
0.2300000382
0.2300000405
0.2300000431
0.2012611915
0.2260407142
0.2296840258
0.2299588835
0.2299893943
0.2299958849
0.229998075
0.2299990318
0.2299995081
0.2299997543
0.229999882
0.2299999478
0.2299999812
0.229999998
0.2300000064
0.2300000105
0.2300000127
0.2300000142
0.2300000152
0.2300000159
0.2300000164
0.2300000167
0.2300000169
0.2300000171
0.2300000172
0.2300000174
0.2300000175
0.2300000176
0.2300000177
0.2300000178
0.2300000178
0.2300000179
0.230000018
0.2300000181
0.2300000181
0.2300000182
0.2300000182
0.2300000183
0.2300000183
0.2300000184
0.2300000184
0.2300000185
0.2300000185
0.2300000185
0.2300000186
0.2300000186
0.2300000186
0.2300000187
0.2300000187
0.2300000187
0.2300000188
0.2300000188
0.2300000188
0.2300000188
0.2300000189
0.230000019
0.2300000192
0.23000002
0.2300000214
0.2300000224
0.1852573425
0.2197607278
0.2290595494
0.2299299509
0.2299874811
0.2299955827
0.2299978623
0.2299988287
0.2299993294
0.2299996079
0.2299997674
0.2299998591
0.2299999113
0.2299999405
0.2299999565
0.229999965
0.2299999698
0.2299999728
0.2299999747
0.2299999759
0.2299999767
0.2299999772
0.2299999775
0.2299999777
0.229999978
0.2299999781
0.2299999783
0.2299999785
0.2299999786
0.2299999787
0.2299999788
0.229999979
0.2299999791
0.2299999792
0.2299999792
0.2299999793
0.2299999794
0.2299999795
0.2299999795
0.2299999796
0.2299999797
0.2299999797
0.2299999798
0.2299999798
0.2299999799
0.2299999799
0.2299999799
0.22999998
0.22999998
0.2299999801
0.2299999801
0.2299999801
0.2299999802
0.2299999802
0.2299999802
0.2299999803
0.2299999804
0.2299999804
0.2299999799
0.229999979
0.1637612444
0.2081096897
0.2261827384
0.2296943062
0.2299695157
0.2299930128
0.2299971798
0.2299985236
0.229999135
0.2299994631
0.2299996539
0.2299997689
0.2299998385
0.2299998804
0.2299999052
0.2299999195
0.2299999278
0.2299999328
0.2299999358
0.2299999376
0.2299999387
0.2299999394
0.2299999398
0.2299999401
0.2299999404
0.2299999406
0.2299999408
0.2299999409
0.2299999411
0.2299999412
0.2299999413
0.2299999415
0.2299999416
0.2299999417
0.2299999418
0.2299999419
0.229999942
0.229999942
0.2299999421
0.2299999422
0.2299999422
0.2299999423
0.2299999424
0.2299999424
0.2299999425
0.2299999425
0.2299999426
0.2299999426
0.2299999427
0.2299999427
0.2299999427
0.2299999428
0.2299999428
0.2299999428
0.2299999428
0.2299999429
0.2299999428
0.2299999424
0.2299999412
0.2299999397
0.1401672395
0.1896541745
0.2181320808
0.2281932185
0.229850108
0.2299803432
0.2299947228
0.2299977862
0.2299988324
0.2299993022
0.2299995492
0.2299996917
0.2299997783
0.2299998319
0.229999865
0.2299998852
0.2299998974
0.2299999048
0.2299999093
0.2299999119
0.2299999134
0.2299999143
0.2299999148
0.2299999152
0.2299999155
0.2299999157
0.2299999159
0.229999916
0.2299999162
0.2299999163
0.2299999165
0.2299999166
0.2299999167
0.2299999168
0.2299999169
0.229999917
0.2299999171
0.2299999171
0.2299999172
0.2299999173
0.2299999174
0.2299999174
0.2299999175
0.2299999175
0.2299999176
0.2299999176
0.2299999177
0.2299999177
0.2299999178
0.2299999178
0.2299999178
0.2299999179
0.2299999179
0.2299999179
0.229999918
0.229999918
0.2299999179
0.2299999176
0.2299999167
0.2299999157
0.1178849158
0.1700973175
0.2048216988
0.2230127134
0.2290775481
0.2299194775
0.2299868637
0.2299959795
0.2299982331
0.2299990514
0.229999421
0.2299996137
0.2299997244
0.229999792
0.2299998342
0.2299998607
0.2299998773
0.2299998877
0.229999894
0.2299998978
0.2299999
0.2299999012
0.2299999019
0.2299999023
0.2299999026
0.2299999029
0.229999903
0.2299999032
0.2299999034
0.2299999035
0.2299999036
0.2299999037
0.2299999039
0.229999904
0.2299999041
0.2299999041
0.2299999042
0.2299999043
0.2299999044
0.2299999045
0.2299999045
0.2299999046
0.2299999047
0.2299999047
0.2299999048
0.2299999048
0.2299999049
0.2299999049
0.229999905
0.229999905
0.229999905
0.2299999051
0.2299999051
0.2299999052
0.2299999052
0.2299999052
0.2299999053
0.2299999052
0.2299999048
0.2299999044
0.09683094817
0.15072195
0.1883587698
0.2127292112
0.2257950202
0.2295757172
0.2299572556
0.2299911359
0.2299969381
0.2299985876
0.2299992194
0.2299995099
0.2299996628
0.2299997515
0.2299998061
0.2299998405
0.2299998624
0.2299998763
0.229999885
0.2299998903
0.2299998934
0.2299998951
0.2299998961
0.2299998967
0.2299998971
0.2299998974
0.2299998976
0.2299998978
0.2299998979
0.2299998981
0.2299998982
0.2299998983
0.2299998984
0.2299998985
0.2299998986
0.2299998987
0.2299998988
0.2299998989
0.229999899
0.2299998991
0.2299998991
0.2299998992
0.2299998993
0.2299998993
0.2299998994
0.2299998994
0.2299998995
0.2299998995
0.2299998996
0.2299998996
0.2299998997
0.2299998997
0.2299998997
0.2299998998
0.2299998998
0.2299998999
0.2299999
0.2299999001
0.2299999001
0.2299999001
0.07740600373
0.1325771582
0.172831371
0.1999908721
0.2180504347
0.2279162956
0.229831731
0.229977537
0.2299941318
0.2299977366
0.2299988931
0.2299993588
0.2299995805
0.2299997014
0.2299997737
0.229999819
0.2299998479
0.2299998664
0.229999878
0.2299998853
0.2299998896
0.2299998921
0.2299998936
0.2299998944
0.229999895
0.2299998953
0.2299998956
0.2299998958
0.2299998959
0.2299998961
0.2299998962
0.2299998963
0.2299998965
0.2299998966
0.2299998967
0.2299998968
0.2299998969
0.229999897
0.229999897
0.2299998971
0.2299998972
0.2299998973
0.2299998973
0.2299998974
0.2299998974
0.2299998975
0.2299998976
0.2299998976
0.2299998977
0.2299998977
0.2299998977
0.2299998978
0.2299998978
0.2299998979
0.229999898
0.2299998981
0.2299998982
0.2299998984
0.2299998986
0.2299998987
0.05958007156
0.1141044555
0.1572982538
0.1878230313
0.2089286077
0.2235806006
0.2293046116
0.229939411
0.2299885078
0.2299963323
0.2299984088
0.2299991467
0.2299994684
0.2299996345
0.2299997313
0.2299997916
0.2299998301
0.2299998548
0.2299998705
0.2299998804
0.2299998864
0.22999989
0.2299998921
0.2299998933
0.229999894
0.2299998945
0.2299998948
0.229999895
0.2299998952
0.2299998954
0.2299998956
0.2299998957
0.2299998958
0.2299998959
0.2299998961
0.2299998962
0.2299998963
0.2299998963
0.2299998964
0.2299998965
0.2299998966
0.2299998967
0.2299998967
0.2299998968
0.2299998969
0.2299998969
0.229999897
0.229999897
0.2299998971
0.2299998971
0.2299998972
0.2299998972
0.2299998973
0.2299998973
0.2299998974
0.2299998975
0.2299998977
0.2299998979
0.2299998982
0.2299998984
0.04443208703
0.09516012241
0.1406928589
0.1747296154
0.1994037459
0.2178283024
0.2279213657
0.2298186215
0.2299755498
0.2299938656
0.2299976918
0.2299988577
0.2299993194
0.2299995456
0.2299996748
0.229999755
0.2299998065
0.2299998396
0.2299998609
0.2299998743
0.2299998826
0.2299998877
0.2299998907
0.2299998924
0.2299998934
0.229999894
0.2299998945
0.2299998948
0.229999895
0.2299998952
0.2299998953
0.2299998955
0.2299998956
0.2299998958
0.2299998959
0.229999896
0.2299998961
0.2299998962
0.2299998963
0.2299998963
0.2299998964
0.2299998965
0.2299998966
0.2299998966
0.2299998967
0.2299998968
0.2299998968
0.2299998969
0.2299998969
0.229999897
0.229999897
0.2299998971
0.2299998971
0.2299998972
0.2299998973
0.2299998974
0.2299998976
0.2299998979
0.2299998982
0.2299998983
0.03263168499
0.07807522354
0.1241411829
0.1616839947
0.190339076
0.2121059381
0.2256002462
0.2295792246
0.2299524033
0.229990401
0.2299968076
0.2299985091
0.2299991364
0.2299994342
0.2299996028
0.2299997077
0.2299997754
0.2299998195
0.229999848
0.2299998662
0.2299998776
0.2299998846
0.2299998888
0.2299998913
0.2299998928
0.2299998936
0.2299998942
0.2299998946
0.2299998948
0.2299998951
0.2299998952
0.2299998954
0.2299998955
0.2299998957
0.2299998958
0.2299998959
0.229999896
0.2299998961
0.2299998962
0.2299998963
0.2299998964
0.2299998965
0.2299998965
0.2299998966
0.2299998967
0.2299998967
0.2299998968
0.2299998968
0.2299998969
0.229999897
0.229999897
0.2299998971
0.2299998971
0.2299998972
0.2299998973
0.2299998974
0.2299998976
0.2299998979
0.2299998982
0.2299998983
0.02403932541
0.06347259753
0.1090235763
0.1491990612
0.1818768656
0.206869406
0.2230716634
0.2291499367
0.2299139619
0.2299853889
0.229995729
0.2299981009
0.2299989189
0.2299992999
0.2299995151
0.2299996494
0.2299997367
0.229999794
0.2299998315
0.2299998557
0.229999871
0.2299998806
0.2299998864
0.2299998899
0.2299998919
0.2299998931
0.2299998939
0.2299998944
0.2299998947
0.229999895
0.2299998952
0.2299998953
0.2299998955
0.2299998956
0.2299998958
0.2299998959
0.229999896
0.2299998961
0.2299998962
0.2299998963
0.2299998964
0.2299998965
0.2299998965
0.2299998966
0.2299998967
0.2299998967
0.2299998968
0.2299998969
0.2299998969
0.229999897
0.229999897
0.2299998971
0.2299998971
0.2299998972
0.2299998973
0.2299998975
0.2299998977
0.2299998979
0.2299998982
0.2299998983
0.01792614807
0.05108647541
0.09520384397
0.1375805747
0.1744835176
0.2029060729
0.2209583646
0.2283913806
0.2298470974
0.229976597
0.2299940594
0.2299975426
0.2299986425
0.2299991358
0.2299994098
0.2299995798
0.2299996903
0.2299997631
0.2299998113
0.2299998427
0.2299998628
0.2299998755
0.2299998833
0.229999888
0.2299998908
0.2299998925
0.2299998935
0.2299998941
0.2299998945
0.2299998948
0.2299998951
0.2299998953
0.2299998955
0.2299998956
0.2299998957
0.2299998959
0.229999896
0.2299998961
0.2299998962
0.2299998963
0.2299998964
0.2299998965
0.2299998965
0.2299998966
0.2299998967
0.2299998967
0.2299998968
0.2299998969
0.2299998969
0.229999897
0.229999897
0.2299998971
0.2299998972
0.2299998972
0.2299998974
0.2299998975
0.2299998977
0.229999898
0.2299998982
0.2299998983
0.01378455767
0.0410320895
0.08348535029
0.1284037178
0.1702153805
0.2017132568
0.219951208
0.227570494
0.2297168139
0.2299588073
0.2299911673
0.2299967261
0.2299982789
0.2299989323
0.2299992837
0.2299994979
0.2299996361
0.2299997272
0.2299997876
0.2299998273
0.229999853
0.2299998693
0.2299998795
0.2299998857
0.2299998894
0.2299998917
0.229999893
0.2299998938
0.2299998944
0.2299998947
0.229999895
0.2299998952
0.2299998954
0.2299998956
0.2299998957
0.2299998958
0.229999896
0.2299998961
0.2299998962
0.2299998963
0.2299998964
0.2299998965
0.2299998965
0.2299998966
0.2299998967
0.2299998968
0.2299998968
0.2299998969
0.2299998969
0.229999897
0.2299998971
0.2299998971
0.2299998972
0.2299998973
0.2299998974
0.2299998976
0.2299998978
0.229999898
0.2299998983
0.2299998983
0.01178442189
0.0350170287
0.07722131172
0.1257828102
0.1725399955
0.2045069116
0.2205639078
0.2270722264
0.2294893124
0.2299187886
0.2299852039
0.2299953379
0.2299977495
0.2299986628
0.2299991253
0.2299993983
0.2299995713
0.2299996846
0.2299997598
0.2299998093
0.2299998416
0.2299998621
0.229999875
0.229999883
0.2299998878
0.2299998907
0.2299998924
0.2299998935
0.2299998941
0.2299998946
0.2299998949
0.2299998952
0.2299998954
0.2299998955
0.2299998957
0.2299998958
0.2299998959
0.2299998961
0.2299998962
0.2299998963
0.2299998964
0.2299998965
0.2299998965
0.2299998966
0.2299998967
0.2299998968
0.2299998968
0.2299998969
0.229999897
0.229999897
0.2299998971
0.2299998971
0.2299998972
0.2299998973
0.2299998974
0.2299998976
0.2299998978
0.2299998981
0.2299998983
0.2299998983
0.01251931504
0.03681067007
0.08268156398
0.1370899644
0.1838054383
0.2103378319
0.2221676155
0.2270199564
0.2291373693
0.2298223617
0.2299693753
0.2299922082
0.2299967842
0.2299982423
0.2299989007
0.2299992641
0.2299994868
0.2299996304
0.229999725
0.2299997872
0.2299998277
0.2299998535
0.2299998697
0.2299998798
0.2299998858
0.2299998895
0.2299998917
0.2299998931
0.2299998939
0.2299998944
0.2299998948
0.2299998951
0.2299998953
0.2299998955
0.2299998957
0.2299998958
0.2299998959
0.2299998961
0.2299998962
0.2299998963
0.2299998964
0.2299998965
0.2299998965
0.2299998966
0.2299998967
0.2299998968
0.2299998968
0.2299998969
0.229999897
0.229999897
0.2299998971
0.2299998972
0.2299998972
0.2299998973
0.2299998975
0.2299998977
0.2299998979
0.2299998981
0.2299998983
0.2299998983
0.01849257398
0.05181029193
0.1045010712
0.1627458398
0.1986691305
0.2159258114
0.2235810039
0.2270344555
0.2287313931
0.2295876931
0.2299114044
0.2299814806
0.2299943221
0.2299974218
0.2299985269
0.2299990593
0.2299993638
0.2299995537
0.2299996766
0.2299997568
0.2299998088
0.229999842
0.2299998628
0.2299998756
0.2299998833
0.229999888
0.2299998908
0.2299998925
0.2299998935
0.2299998942
0.2299998947
0.229999895
0.2299998952
0.2299998954
0.2299998956
0.2299998958
0.2299998959
0.229999896
0.2299998961
0.2299998962
0.2299998964
0.2299998964
0.2299998965
0.2299998966
0.2299998967
0.2299998968
0.2299998968
0.2299998969
0.229999897
0.229999897
0.2299998971
0.2299998972
0.2299998973
0.2299998974
0.2299998975
0.2299998977
0.2299998979
0.2299998982
0.2299998983
0.2299998983
0.0354576144
0.08216255179
0.1458366956
0.1869869076
0.2084520733
0.2189974723
0.2241571002
0.2268089733
0.2282851698
0.2291887096
0.2297225097
0.2299358741
0.2299855034
0.229995286
0.2299977796
0.229998705
0.2299991649
0.2299994332
0.2299996016
0.2299997101
0.2299997799
0.2299998244
0.2299998522
0.2299998692
0.2299998795
0.2299998857
0.2299998894
0.2299998916
0.2299998929
0.2299998938
0.2299998943
0.2299998947
0.229999895
0.2299998952
0.2299998954
0.2299998956
0.2299998957
0.2299998959
0.229999896
0.2299998961
0.2299998962
0.2299998963
0.2299998964
0.2299998965
0.2299998966
0.2299998966
0.2299998967
0.2299998968
0.2299998968
0.2299998969
0.229999897
0.2299998971
0.2299998972
0.2299998973
0.2299998974
0.2299998976
0.2299998979
0.2299998981
0.2299998983
0.2299998983
0.1151123398
0.1485504558
0.1801308542
0.2011465979
0.2134266224
0.2202764868
0.2241354504
0.2264015498
0.2278030208
0.2287223173
0.2293636238
0.2297744721
0.2299462394
0.229987455
0.2299958031
0.229997984
0.2299988114
0.2299992307
0.2299994776
0.2299996327
0.2299997318
0.2299997948
0.2299998342
0.2299998584
0.229999873
0.2299998816
0.2299998868
0.2299998899
0.2299998917
0.2299998929
0.2299998936
0.229999894
0.2299998944
0.2299998946
0.2299998948
0.229999895
0.2299998952
0.2299998953
0.2299998954
0.2299998955
0.2299998956
0.2299998957
0.2299998958
0.2299998959
0.229999896
0.2299998961
0.2299998962
0.2299998962
0.2299998963
0.2299998964
0.2299998964
0.2299998965
0.2299998966
0.2299998968
0.2299998969
0.2299998971
0.2299998974
0.2299998976
0.2299998978
0.2299998977
0.1581005323
0.1779696981
0.1951704007
0.2074852347
0.2155221603
0.2205917887
0.2237959291
0.2258685183
0.2272566884
0.2282225119
0.2289204394
0.2294442161
0.229798084
0.2299514353
0.2299885461
0.2299960995
0.2299980987
0.229998871
0.2299992671
0.2299995022
0.2299996498
0.2299997437
0.2299998028
0.2299998394
0.2299998617
0.2299998751
0.229999883
0.2299998877
0.2299998904
0.229999892
0.229999893
0.2299998936
0.229999894
0.2299998943
0.2299998945
0.2299998947
0.2299998949
0.229999895
0.2299998951
0.2299998952
0.2299998954
0.2299998955
0.2299998955
0.2299998956
0.2299998957
0.2299998958
0.2299998959
0.2299998959
0.229999896
0.2299998961
0.2299998962
0.2299998962
0.2299998964
0.2299998965
0.2299998966
0.2299998968
0.2299998971
0.2299998973
0.2299998975
0.2299998973
0.177947146
0.1909730372
0.2020129522
0.2103857275
0.2163426376
0.2204579018
0.2232868302
0.2252544979
0.2266534301
0.2276750847
0.2284413423
0.2290289431
0.2294899123
0.2298126216
0.2299551962
0.2299893487
0.2299962957
0.2299981663
0.2299989006
0.2299992836
0.229999513
0.2299996575
0.2299997492
0.2299998069
0.2299998426
0.2299998641
0.2299998769
0.2299998844
0.2299998888
0.2299998912
0.2299998927