/*--------------------------------*- C++ -*----------------------------------*\
  =========                 |
  \\      /  F ield         | OpenFOAM: The Open Source CFD Toolbox
   \\    /   O peration     | Website:  https://openfoam.org
    \\  /    A nd           | Version:  10
     \\/     M anipulation  |
\*---------------------------------------------------------------------------*/
FoamFile
{
    format      ascii;
    class       volScalarField;
    location    "0.02499901733";
    object      O2_0;
}
// * * * * * * * * * * * * * * * * * * * * * * * * * * * * * * * * * * * * * //

dimensions      [0 0 0 0 0 0 0];

internalField   nonuniform List<scalar> 
5170
(
0.1965999904
0.1965999904
0.1965999905
0.1965999913
0.1965999993
0.1965999807
0.1965999808
0.196599981
0.1965999822
0.196599989
0.1965999711
0.1965999712
0.1965999715
0.196599973
0.1965999786
0.1965999616
0.1965999617
0.1965999621
0.1965999637
0.1965999682
0.1965999522
0.1965999523
0.1965999528
0.1965999543
0.1965999577
0.1965999428
0.196599943
0.1965999435
0.1965999449
0.1965999471
0.1965999336
0.1965999337
0.1965999342
0.1965999354
0.1965999365
0.1965999244
0.1965999246
0.196599925
0.1965999259
0.1965999259
0.1965999153
0.1965999155
0.1965999158
0.1965999163
0.1965999152
0.1965999063
0.1965999064
0.1965999067
0.1965999067
0.1965999045
0.1965998973
0.1965998974
0.1965998976
0.196599897
0.1965998938
0.1965998884
0.1965998885
0.1965998885
0.1965998873
0.196599883
0.1965998796
0.1965998796
0.1965998794
0.1965998775
0.1965998722
0.1965998708
0.1965998707
0.1965998703
0.1965998677
0.1965998614
0.196599862
0.1965998619
0.1965998612
0.1965998578
0.1965998506
0.1965998533
0.1965998531
0.1965998521
0.1965998479
0.1965998398
0.1965998446
0.1965998443
0.196599843
0.1965998379
0.196599829
0.196599836
0.1965998356
0.1965998338
0.1965998278
0.1965998183
0.1965998273
0.1965998267
0.1965998236
0.1965998108
0.1965997795
0.1965998083
0.1965997596
0.1965993482
0.1965965045
0.1965837753
0.05306580933
0.0530592816
0.05305328
0.05304153268
0.05298982518
0.05263601
0.05266468284
0.05264829823
0.05263968767
0.05255503561
0.05243207768
0.05247731766
0.05245842313
0.05244955133
0.05237451086
0.05232083982
0.05236399658
0.05235129449
0.05233442039
0.05226804148
0.05223803439
0.05228065828
0.05227647825
0.05226036785
0.05220622941
0.05219070443
0.05222727998
0.0522273905
0.05221005872
0.05217140973
0.05216501847
0.05218857989
0.05218837844
0.05216804983
0.05208485468
0.0520707815
0.05215720204
0.0521607335
0.05213044354
0.05196378858
0.05196571006
0.05209474403
0.05210704415
0.05201595766
0.05197813823
0.05198196969
0.05198859468
0.05200063764
0.05198256051
0.05195487969
0.05196850897
0.05199094342
0.05199649824
0.05197267222
0.05194927286
0.0519668258
0.05197835076
0.05197882172
0.05195397909
0.05193226054
0.05195536794
0.05196217164
0.05196149992
0.05194172929
0.05190984512
0.05193596972
0.05195371439
0.05195206406
0.05192804506
0.05188695985
0.05191196047
0.05194063272
0.05193946782
0.05190932109
0.0518648238
0.05188656075
0.05192085443
0.05192038168
0.05188794531
0.05184475614
0.0518623721
0.05189751344
0.05189757329
0.05186632268
0.05182784872
0.05184156255
0.05187343781
0.05187371806
0.05184628752
0.05181512672
0.05179935562
0.05184582709
0.05185148937
0.05183369991
0.05181687554
0.0485901796
0.0513606071
0.05187764948
0.05215028865
0.05260502085
0.1965994168
0.1965967382
0.196552383
0.1958924991
0.1871281563
0.1965976444
0.1965851881
0.196420632
0.194716288
0.1822255795
0.1965925415
0.1965557315
0.1961570715
0.1930793464
0.1784582287
0.1965806808
0.1964948809
0.1957135899
0.1910188838
0.1752798059
0.1965559466
0.1963799273
0.1950147866
0.1886101568
0.1725352484
0.1965070872
0.1961703733
0.1939790279
0.1860091172
0.1700000536
0.1964157598
0.1958163162
0.192590316
0.1833267244
0.1674680612
0.1962530948
0.1952547125
0.1908504157
0.1806101126
0.1649473073
0.1959724273
0.1944074281
0.18878748
0.1778894343
0.1624722767
0.1955027419
0.1932004433
0.1864425805
0.1751326917
0.1599955449
0.1947339236
0.1915527509
0.1838553095
0.1723402365
0.1575249687
0.1934118149
0.189400943
0.1810698849
0.1694693945
0.1549971231
0.1914378265
0.1867829322
0.1780785158
0.1664981832
0.1523994001
0.1885786753
0.1836243943
0.1748073412
0.1633584072
0.1496568641
0.184721714
0.1798578878
0.1711759284
0.1599793071
0.1467182042
0.1800458043
0.17544422
0.1670595039
0.1562333629
0.14349583
0.1743071285
0.1701294166
0.1622694163
0.1519957107
0.13988467
0.167852508
0.1641596634
0.1569359206
0.1472693158
0.1357674236
0.1610105096
0.1577221988
0.1511702789
0.1423648593
0.1319783139
0.1539351792
0.1512260833
0.1458742639
0.1388951643
0.1311148907
0.1480856395
0.1464157906
0.1432118816
0.1392674573
0.1352552652
0.1474083745
0.1468252244
0.1457523826
0.1445854732
0.1437071383
0.153106338
0.1531252362
0.1532679023
0.1536841895
0.1545295785
0.1626236269
0.1628803004
0.1635010869
0.1645209595
0.1659682507
0.1731491816
0.1734420628
0.1741167291
0.1751623059
0.1765666476
0.1828811588
0.183138659
0.1837203019
0.1846087016
0.1857810329
0.1907155432
0.1909197859
0.1913819688
0.1920839688
0.1930041736
0.1969963595
0.1971539043
0.1975090853
0.1980469461
0.1987501505
0.2019482436
0.2020681015
0.2023374784
0.2027448591
0.2032773332
0.2058272765
0.2059181061
0.2061217737
0.2064296941
0.2068325944
0.2088634245
0.2089324917
0.2090870788
0.2093208842
0.2096273828
0.2112481209
0.2113011925
0.2114197957
0.2115993004
0.2118351475
0.2131342426
0.2131757069
0.2132682234
0.2134083466
0.2135928811
0.2146379685
0.2146710437
0.2147447145
0.2148563518
0.2150036888
0.2158444302
0.2158714251
0.2159314291
0.2160223764
0.2161426304
0.2168169059
0.2168394586
0.2168894763
0.21696528
0.2170656609
0.2176055521
0.2176248194
0.2176674491
0.217732033
0.2178176558
0.2182523005
0.218269086
0.2183061431
0.218362258
0.2184367173
0.2187923288
0.2188071854
0.2188399216
0.2188894713
0.2189552622
0.219253998
0.2192673026
0.2192965769
0.2193408716
0.2193997158
0.2196589076
0.2196709213
0.2196973284
0.2197372772
0.2197903716
0.2200225579
0.220033467
0.2200574311
0.2200936822
0.2201418814
0.2203555244
0.220365469
0.2203873064
0.2204203421
0.2204642828
0.2206647572
0.2206738478
0.2206938069
0.2207240051
0.2207641862
0.2209547554
0.2209630837
0.2209813685
0.2210090381
0.2210458675
0.221228461
0.2212361051
0.2212528885
0.2212782914
0.2213121145
0.221487873
0.221494901
0.2215103328
0.2215336945
0.2215648097
0.2217344259
0.2217408974
0.2217551088
0.2217766273
0.2218052958
0.2219692193
0.2219751871
0.221988294
0.2220081439
0.2220345965
0.2221931548
0.222198666
0.2222107712
0.2222291076
0.2222535496
0.2224070297
0.2224121265
0.2224233224
0.2224402841
0.2224628989
0.2226114212
0.2226161406
0.2226265091
0.22264222
0.2226631719
0.2228070014
0.2228113774
0.2228209922
0.2228355634
0.2228549996
0.2229943226
0.2229983852
0.2230073123
0.2230208434
0.2230388956
0.2231738897
0.2231776659
0.2231859643
0.2231985443
0.2232153308
0.2233461638
0.2233496778
0.2233574009
0.22336911
0.2233847372
0.2235115631
0.2235148368
0.2235220322
0.2235329428
0.2235475065
0.2236704742
0.2236735273
0.2236802385
0.2236904159
0.2237040033
0.2238232525
0.2238261028
0.2238323687
0.223841872
0.2238545611
0.2239702417
0.2239729055
0.2239787619
0.2239876449
0.2239995074
0.2241117539
0.2241142458
0.2241197245
0.2241280355
0.2241391357
0.2242481052
0.2242504388
0.2242555695
0.2242633533
0.2242737505
0.2243795485
0.2243817356
0.2243865445
0.2243938409
0.2244035881
0.2245063706
0.2245084225
0.2245129347
0.2245197814
0.2245289289
0.2246287325
0.224630659
0.2246348956
0.2246413245
0.2246499148
0.2247469677
0.2247487784
0.2247527603
0.2247588031
0.2247668784
0.2248610555
0.224862758
0.2248665021
0.2248721846
0.2248797789
0.2249713422
0.2249729452
0.2249764707
0.2249818218
0.2249889737
0.2250761023
0.2250776124
0.2250809336
0.2250859748
0.2250927132
0.2251660566
0.2251674911
0.2251706464
0.2251754361
0.2251818388
0.1619946522
0.1606410102
0.1595220847
0.158234424
0.1568362876
0.1552770223
0.1535096265
0.1516525953
0.1497864201
0.1478545594
0.1458826873
0.1438011567
0.1416333936
0.1393190879
0.1367979178
0.1340387465
0.1309000151
0.1272009978
0.1243764297
0.1258543458
0.132852939
0.1434442412
0.1553712523
0.1671329492
0.1776537677
0.186677044
0.1937021537
0.1992833389
0.20368211
0.2071401892
0.209862663
0.2120173204
0.2137363663
0.2151190418
0.2162374472
0.2171453713
0.2178861092
0.2184966077
0.2190084491
0.2194474761
0.2198335928
0.2201812013
0.2205001831
0.2207970504
0.2210760143
0.2213398175
0.2215903074
0.2218287985
0.2220562905
0.2222736013
0.2224814574
0.2226803704
0.2228709579
0.2230537211
0.2232291199
0.2233975766
0.2235594745
0.2237151708
0.2238649921
0.2240092604
0.2241482632
0.2242823013
0.2244116052
0.2245364536
0.2246569819
0.2247735225
0.224886028
0.2249948592
0.225098259
0.2251871089
0.1114344462
0.02476478452
0.05065623004
0.07090781078
0.1132445459
0.1214237429
0.05506804913
0.03107749685
0.07678510487
0.1363842636
0.1259047401
0.07105231126
0.0189854769
0.06899412303
0.1408654469
0.1282063087
0.07803612264
0.01928164902
0.05362694101
0.1237260705
0.1293909247
0.08305015717
0.02963721304
0.03747763732
0.09908978646
0.1299004036
0.0872856965
0.03979777926
0.02541203394
0.07643984879
0.1298702766
0.09041905753
0.04659943913
0.01835875235
0.05604696749
0.1294988543
0.09273319524
0.05183733432
0.01629929733
0.03994715893
0.1289308521
0.09450648493
0.05637123348
0.01990621812
0.02866041801
0.1281331394
0.09570874282
0.05972505875
0.02355361583
0.02047233716
0.1271517687
0.09641767447
0.06220820253
0.02687740241
0.01508036314
0.1259449263
0.09670839207
0.06426528007
0.03044984361
0.01254757004
0.1245884126
0.09684035407
0.06635237337
0.03476441348
0.01373109125
0.1230680118
0.09676718259
0.06809591814
0.03838220184
0.01578264565
0.121297458
0.09631856085
0.06924460651
0.04111804497
0.01779703173
0.1193280207
0.09571866658
0.07019461793
0.04350768069
0.0199775117
0.1169879216
0.09459322148
0.07026300237
0.04453549797
0.02127256399
0.1139928063
0.09243135344
0.06871749062
0.04331071016
0.02094225604
0.1127486501
0.09423992759
0.07394585542
0.04965336424
0.02294845801
0.1179584081
0.1077094541
0.1001928932
0.0966326391
0.09999080433
0.1292040171
0.1265848248
0.1278401917
0.1335422762
0.1438567457
0.14285755
0.1446226464
0.1494219313
0.1570233315
0.1667537532
0.1563467568
0.159836239
0.1652403923
0.1721260804
0.1798867042
0.1685706567
0.1721643541
0.1769578446
0.1825568505
0.1885235542
0.1790185537
0.1821120629
0.1859940734
0.1903599574
0.1949154065
0.1878121375
0.190270244
0.1932682132
0.1965843955
0.2000179044
0.1945897019
0.1964863962
0.1987780332
0.2013032041
0.203920641
0.1999651232
0.2014126698
0.2031574155
0.2050831072
0.2070894886
0.2042033381
0.2053064437
0.2066371965
0.2081123764
0.2096604154
0.2075396687
0.208383325
0.209403582
0.2105411869
0.2117449672
0.210171264
0.2108217068
0.2116107623
0.2124964231
0.2134420805
0.2122589145
0.2127669268
0.2133850972
0.2140836421
0.2148362949
0.2139289802
0.2143326742
0.214825061
0.2153849112
0.2159932412
0.2152759898
0.2156033337
0.2160029975
0.2164597157
0.2169596362
0.2163684006
0.2166396022
0.2169704733
0.2173499396
0.2177677941
0.2172572498
0.217486823
0.2177662084
0.2180873069
0.218442521
0.2179837557
0.2181820476
0.2184224619
0.2186990174
0.2190059931
0.2185833189
0.2187576099
0.2189680426
0.2192101368
0.2194795153
0.2190864215
0.2192417668
0.2194286049
0.2196435124
0.2198830718
0.2195181712
0.2196580618
0.2198258071
0.220018726
0.2202340872
0.2198980142
0.2200248938
0.220176734
0.2203513793
0.2205465953
0.2202400835
0.220355721
0.2204939605
0.2206530264
0.2208310519
0.2205541068
0.2206598492
0.2207862175
0.2209317193
0.2210947679
0.220846506
0.2209434341
0.221059289
0.2211927964
0.2213425909
0.221121432
0.2212104507
0.2213169037
0.2214396911
0.221577627
0.2213815815
0.2214634715
0.2215614645
0.2216746035
0.221801852
0.2216287621
0.2217042069
0.2217945543
0.2218989672
0.2220165356
0.221864253
0.2219338574
0.2220172748
0.2221137697
0.2222225407
0.2220890218
0.222153324
0.2222304454
0.2223197381
0.2224204946
0.222303858
0.2223633388
0.22243473
0.2225174594
0.2226109008
0.2225094629
0.2225645537
0.222630722
0.2227074611
0.2227942162
0.2227063247
0.2227574134
0.222818816
0.222890083
0.2229707215
0.2228950416
0.2229424766
0.222999524
0.2230657843
0.2231408189
0.2230760956
0.2231201896
0.223173251
0.2232349238
0.2233048172
0.2232499304
0.2232909647
0.2233403722
0.2233978353
0.2234630051
0.223416954
0.2234551824
0.2235012361
0.2235548313
0.2236156561
0.2235775367
0.2236131881
0.223656159
0.2237061953
0.2237630176
0.2237320251
0.2237653074
0.2238054421
0.2238522011
0.2239053339
0.2238807349
0.2239118358
0.2239493569
0.2239930934
0.2240428203
0.22402398
0.2240530716
0.2240881835
0.2241291315
0.2241757134
0.2241620387
0.2241892752
0.2242221616
0.2242605319
0.2243042039
0.2242952059
0.2243207307
0.2243515624
0.2243875512
0.2244285327
0.2244237042
0.2244476443
0.2244765727
0.2245103544
0.2245488409
0.2245478092
0.2245702865
0.2245974571
0.2246291984
0.224665376
0.2246676468
0.2246887636
0.2247142983
0.2247441396
0.2247781659
0.2247835485
0.2248034077
0.2248274294
0.2248555128
0.2248875476
0.2248954577
0.2249141404
0.2249367459
0.2249631828
0.224993351
0.2250037398
0.2250213405
0.2250426429
0.2250675637
0.2250960117
0.2251066276
0.2251232157
0.2251432982
0.2251667994
0.225193637
0.2251950613
0.2252108302
0.2252299253
0.2252522767
0.2252778085
0.2160198039
0.2290866926
0.2299225701
0.2299857458
0.2299955296
0.2299982686
0.2299993055
0.2299997305
0.2299999056
0.2299999765
0.2300000045
0.2300000155
0.2300000198
0.2300000215
0.2300000222
0.2300000225
0.2300000226
0.2300000227
0.2300000228
0.2300000229
0.2300000229
0.230000023
0.230000023
0.230000023
0.230000023
0.230000023
0.230000023
0.2300000231
0.2300000231
0.2300000231
0.2300000231
0.2300000231
0.2300000231
0.2300000231
0.2300000231
0.2300000231
0.2300000231
0.2300000231
0.2300000231
0.2300000231
0.2300000232
0.2300000232
0.2300000232
0.2300000232
0.2300000232
0.2300000232
0.2300000232
0.2300000232
0.2300000232
0.2300000232
0.2300000232
0.2300000232
0.2300000232
0.2300000232
0.2300000232
0.2300000232
0.2300000233
0.2300000235
0.2300000239
0.2300000246
0.2062794104
0.2274757864
0.2297866469
0.2299682203
0.2299911137
0.2299965555
0.229998495
0.2299993304
0.2299997128
0.229999889
0.2299999693
0.2300000054
0.2300000216
0.2300000288
0.2300000321
0.2300000336
0.2300000343
0.2300000349
0.2300000353
0.2300000356
0.2300000358
0.230000036
0.2300000361
0.2300000361
0.2300000362
0.2300000362
0.2300000363
0.2300000363
0.2300000364
0.2300000364
0.2300000365
0.2300000365
0.2300000365
0.2300000366
0.2300000366
0.2300000366
0.2300000367
0.2300000367
0.2300000367
0.2300000367
0.2300000368
0.2300000368
0.2300000368
0.2300000368
0.2300000368
0.2300000369
0.2300000369
0.2300000369
0.2300000369
0.2300000369
0.2300000369
0.230000037
0.230000037
0.230000037
0.230000037
0.2300000371
0.2300000373
0.2300000382
0.2300000405
0.2300000432
0.2012627068
0.2260435382
0.2296845104
0.2299589448
0.2299894067
0.2299958889
0.2299980768
0.2299990327
0.2299995085
0.2299997545
0.2299998821
0.2299999477
0.2299999811
0.2299999979
0.2300000062
0.2300000104
0.2300000126
0.2300000141
0.2300000151
0.2300000158
0.2300000163
0.2300000166
0.2300000168
0.230000017
0.2300000171
0.2300000172
0.2300000174
0.2300000175
0.2300000176
0.2300000176
0.2300000177
0.2300000178
0.2300000179
0.2300000179
0.230000018
0.2300000181
0.2300000181
0.2300000182
0.2300000182
0.2300000183
0.2300000183
0.2300000184
0.2300000184
0.2300000184
0.2300000185
0.2300000185
0.2300000185
0.2300000186
0.2300000186
0.2300000186
0.2300000186
0.2300000187
0.2300000187
0.2300000187
0.2300000188
0.2300000188
0.2300000191
0.2300000199
0.2300000213
0.2300000223
0.185243101
0.2197632696
0.2290611027
0.2299301155
0.2299875051
0.2299955888
0.2299978646
0.2299988298
0.2299993299
0.229999608
0.2299997674
0.229999859
0.2299999111
0.2299999403
0.2299999563
0.2299999648
0.2299999696
0.2299999726
0.2299999745
0.2299999757
0.2299999765
0.229999977
0.2299999773
0.2299999775
0.2299999778
0.2299999779
0.2299999781
0.2299999783
0.2299999784
0.2299999785
0.2299999786
0.2299999788
0.2299999789
0.2299999789
0.229999979
0.2299999791
0.2299999792
0.2299999793
0.2299999793
0.2299999794
0.2299999795
0.2299999795
0.2299999796
0.2299999796
0.2299999797
0.2299999797
0.2299999797
0.2299999798
0.2299999798
0.2299999799
0.2299999799
0.2299999799
0.2299999799
0.22999998
0.22999998
0.2299999801
0.2299999802
0.2299999802
0.2299999797
0.2299999787
0.1637602295
0.2081171149
0.2261863462
0.2296948728
0.2299695823
0.229993026
0.2299971842
0.2299985254
0.2299991358
0.2299994635
0.2299996541
0.2299997689
0.2299998384
0.2299998803
0.2299999051
0.2299999193
0.2299999276
0.2299999326
0.2299999356
0.2299999374
0.2299999385
0.2299999392
0.2299999396
0.2299999399
0.2299999402
0.2299999404
0.2299999405
0.2299999407
0.2299999409
0.229999941
0.2299999411
0.2299999413
0.2299999414
0.2299999415
0.2299999416
0.2299999417
0.2299999418
0.2299999418
0.2299999419
0.229999942
0.229999942
0.2299999421
0.2299999422
0.2299999422
0.2299999423
0.2299999423
0.2299999424
0.2299999424
0.2299999424
0.2299999425
0.2299999425
0.2299999425
0.2299999426
0.2299999426
0.2299999426
0.2299999427
0.2299999426
0.2299999422
0.229999941
0.2299999395
0.1402028699
0.1896794426
0.2181421791
0.2281956412
0.2298505078
0.2299804052
0.229994738
0.2299977914
0.2299988346
0.2299993031
0.2299995495
0.2299996918
0.2299997783
0.2299998318
0.2299998649
0.2299998851
0.2299998973
0.2299999047
0.2299999091
0.2299999118
0.2299999133
0.2299999142
0.2299999147
0.229999915
0.2299999153
0.2299999155
0.2299999157
0.2299999159
0.229999916
0.2299999162
0.2299999163
0.2299999164
0.2299999165
0.2299999166
0.2299999167
0.2299999168
0.2299999169
0.229999917
0.2299999171
0.2299999171
0.2299999172
0.2299999173
0.2299999173
0.2299999174
0.2299999174
0.2299999175
0.2299999175
0.2299999176
0.2299999176
0.2299999177
0.2299999177
0.2299999177
0.2299999178
0.2299999178
0.2299999178
0.2299999178
0.2299999178
0.2299999175
0.2299999165
0.2299999156
0.1179227196
0.1701204245
0.2048327517
0.2230148029
0.2290793959
0.2299197968
0.2299869166
0.2299959936
0.2299982382
0.2299990534
0.2299994218
0.229999614
0.2299997246
0.229999792
0.2299998342
0.2299998607
0.2299998773
0.2299998876
0.2299998939
0.2299998977
0.2299998999
0.2299999011
0.2299999018
0.2299999022
0.2299999025
0.2299999028
0.2299999029
0.2299999031
0.2299999033
0.2299999034
0.2299999035
0.2299999037
0.2299999038
0.2299999039
0.229999904
0.2299999041
0.2299999041
0.2299999042
0.2299999043
0.2299999044
0.2299999044
0.2299999045
0.2299999046
0.2299999046
0.2299999047
0.2299999047
0.2299999048
0.2299999048
0.2299999049
0.2299999049
0.2299999049
0.229999905
0.229999905
0.2299999051
0.2299999051
0.2299999051
0.2299999052
0.2299999051
0.2299999047
0.2299999044
0.09686668261
0.1507430852
0.1883624641
0.2127219856
0.2257994375
0.2295777778
0.2299575098
0.2299911814
0.2299969509
0.2299985922
0.2299992212
0.2299995106
0.2299996631
0.2299997516
0.2299998061
0.2299998405
0.2299998624
0.2299998763
0.2299998849
0.2299998902
0.2299998933
0.2299998951
0.2299998961
0.2299998967
0.229999897
0.2299998973
0.2299998975
0.2299998977
0.2299998979
0.229999898
0.2299998981
0.2299998983
0.2299998984
0.2299998985
0.2299998986
0.2299998987
0.2299998987
0.2299998988
0.2299998989
0.229999899
0.2299998991
0.2299998991
0.2299998992
0.2299998992
0.2299998993
0.2299998994
0.2299998994
0.2299998995
0.2299998995
0.2299998995
0.2299998996
0.2299998996
0.2299998997
0.2299998997
0.2299998998
0.2299998999
0.2299998999
0.2299999
0.2299999001
0.2299999001
0.07743475034
0.1325934442
0.1728454136
0.1999989401
0.2180628566
0.2279270743
0.2298331514
0.2299776989
0.2299941661
0.2299977474
0.229998897
0.2299993603
0.2299995811
0.2299997017
0.2299997738
0.229999819
0.2299998479
0.2299998663
0.229999878
0.2299998852
0.2299998896
0.2299998921
0.2299998935
0.2299998944
0.2299998949
0.2299998952
0.2299998955
0.2299998957
0.2299998959
0.229999896
0.2299998962
0.2299998963
0.2299998964
0.2299998965
0.2299998966
0.2299998967
0.2299998968
0.2299998969
0.229999897
0.2299998971
0.2299998971
0.2299998972
0.2299998973
0.2299998973
0.2299998974
0.2299998975
0.2299998975
0.2299998976
0.2299998976
0.2299998977
0.2299998977
0.2299998977
0.2299998978
0.2299998978
0.2299998979
0.229999898
0.2299998982
0.2299998984
0.2299998986
0.2299998987
0.0595812764
0.1141005563
0.1573010138
0.1878362498
0.208957419
0.2236217158
0.2293128512
0.229940018
0.2299885963
0.229996356
0.2299984169
0.2299991496
0.2299994694
0.2299996349
0.2299997314
0.2299997916
0.2299998301
0.2299998548
0.2299998705
0.2299998804
0.2299998864
0.22999989
0.2299998921
0.2299998933
0.229999894
0.2299998944
0.2299998948
0.229999895
0.2299998952
0.2299998954
0.2299998955
0.2299998957
0.2299998958
0.2299998959
0.229999896
0.2299998961
0.2299998962
0.2299998963
0.2299998964
0.2299998965
0.2299998965
0.2299998966
0.2299998967
0.2299998967
0.2299998968
0.2299998969
0.2299998969
0.229999897
0.229999897
0.2299998971
0.2299998971
0.2299998972
0.2299998972
0.2299998973
0.2299998974
0.2299998975
0.2299998977
0.2299998979
0.2299998982
0.2299998983
0.04442130456
0.09514973735
0.1406924702
0.1747524885
0.1994544773
0.2179132227
0.2279481634
0.2298210942
0.2299758152
0.2299939218
0.2299977082
0.229998863
0.2299993213
0.2299995463
0.2299996751
0.2299997551
0.2299998065
0.2299998396
0.2299998609
0.2299998743
0.2299998826
0.2299998876
0.2299998906
0.2299998924
0.2299998934
0.229999894
0.2299998944
0.2299998947
0.2299998949
0.2299998951
0.2299998953
0.2299998954
0.2299998956
0.2299998957
0.2299998958
0.2299998959
0.229999896
0.2299998961
0.2299998962
0.2299998963
0.2299998964
0.2299998965
0.2299998965
0.2299998966
0.2299998967
0.2299998967
0.2299998968
0.2299998968
0.2299998969
0.2299998969
0.229999897
0.229999897
0.2299998971
0.2299998972
0.2299998972
0.2299998974
0.2299998976
0.2299998978
0.2299998981
0.2299998982
0.03262435834
0.0780709812
0.1241549014
0.1617337591
0.1904325206
0.2122353848
0.2256667817
0.2295876189
0.2299531993
0.2299905248
0.2299968374
0.2299985179
0.2299991393
0.2299994353
0.2299996032
0.2299997079
0.2299997755
0.2299998195
0.229999848
0.2299998662
0.2299998776
0.2299998846
0.2299998888
0.2299998913
0.2299998927
0.2299998936
0.2299998941
0.2299998945
0.2299998948
0.229999895
0.2299998952
0.2299998954
0.2299998955
0.2299998956
0.2299998958
0.2299998959
0.229999896
0.2299998961
0.2299998962
0.2299998963
0.2299998963
0.2299998964
0.2299998965
0.2299998966
0.2299998966
0.2299998967
0.2299998967
0.2299998968
0.2299998969
0.2299998969
0.229999897
0.229999897
0.2299998971
0.2299998971
0.2299998972
0.2299998974
0.2299998976
0.2299998978
0.2299998981
0.2299998982
0.02404644999
0.06349107965
0.1090676942
0.1492967576
0.1820355196
0.2070633957
0.2231807952
0.2291759655
0.2299154437
0.2299856311
0.2299957785
0.2299981138
0.2299989229
0.2299993014
0.2299995157
0.2299996497
0.2299997369
0.2299997941
0.2299998315
0.2299998557
0.229999871
0.2299998806
0.2299998864
0.2299998898
0.2299998919
0.2299998931
0.2299998938
0.2299998943
0.2299998947
0.2299998949
0.2299998951
0.2299998953
0.2299998955
0.2299998956
0.2299998957
0.2299998958
0.229999896
0.2299998961
0.2299998962
0.2299998962
0.2299998963
0.2299998964
0.2299998965
0.2299998966
0.2299998966
0.2299998967
0.2299998968
0.2299998968
0.2299998969
0.2299998969
0.229999897
0.229999897
0.2299998971
0.2299998972
0.2299998973
0.2299998974
0.2299998976
0.2299998979
0.2299998982
0.2299998982
0.01794686969
0.05112688387
0.09528808682
0.1377538296
0.1747566034
0.2032001437
0.2211234117
0.228438659
0.229851014
0.2299770716
0.229994141
0.2299975616
0.2299986482
0.2299991379
0.2299994108
0.2299995803
0.2299996906
0.2299997633
0.2299998113
0.2299998427
0.2299998628
0.2299998754
0.2299998832
0.229999888
0.2299998908
0.2299998924
0.2299998935
0.2299998941
0.2299998945
0.2299998948
0.229999895
0.2299998952
0.2299998954
0.2299998956
0.2299998957
0.2299998958
0.2299998959
0.229999896
0.2299998961
0.2299998962
0.2299998963
0.2299998964
0.2299998965
0.2299998966
0.2299998966
0.2299998967
0.2299998968
0.2299998968
0.2299998969
0.2299998969
0.229999897
0.2299998971
0.2299998971
0.2299998972
0.2299998973
0.2299998975
0.2299998977
0.2299998979
0.2299998982
0.2299998982
0.01382202675
0.04112486823
0.08368835748
0.1287699877
0.1707261586
0.2021554135
0.2201694443
0.2276406376
0.2297250612
0.2299598258
0.2299913117
0.2299967547
0.2299982867
0.2299989352
0.229999285
0.2299994986
0.2299996364
0.2299997274
0.2299997877
0.2299998273
0.229999853
0.2299998693
0.2299998795
0.2299998857
0.2299998894
0.2299998916
0.229999893
0.2299998938
0.2299998943
0.2299998947
0.229999895
0.2299998952
0.2299998954
0.2299998955
0.2299998957
0.2299998958
0.2299998959
0.229999896
0.2299998961
0.2299998962
0.2299998963
0.2299998964
0.2299998965
0.2299998966
0.2299998966
0.2299998967
0.2299998968
0.2299998968
0.2299998969
0.229999897
0.229999897
0.2299998971
0.2299998971
0.2299998972
0.2299998974
0.2299998975
0.2299998977
0.229999898
0.2299998982
0.2299998982
0.01187558043
0.03530180272
0.077770326
0.1266020539
0.1734247149
0.205073497
0.2208007279
0.2271512965
0.2295023558
0.2299208234
0.2299854698
0.2299953811
0.2299977599
0.2299986664
0.2299991269
0.2299993991
0.2299995718
0.2299996849
0.2299997599
0.2299998094
0.2299998416
0.2299998621
0.229999875
0.229999883
0.2299998878
0.2299998906
0.2299998924
0.2299998934
0.2299998941
0.2299998945
0.2299998949
0.2299998951
0.2299998953
0.2299998955
0.2299998956
0.2299998958
0.2299998959
0.229999896
0.2299998961
0.2299998962
0.2299998963
0.2299998964
0.2299998965
0.2299998966
0.2299998967
0.2299998967
0.2299998968
0.2299998969
0.2299998969
0.229999897
0.229999897
0.2299998971
0.2299998972
0.2299998973
0.2299998974
0.2299998976
0.2299998978
0.229999898
0.2299998982
0.2299998982
0.01275505093
0.03754805331
0.08390170878
0.1387467972
0.1849591573
0.2108785718
0.2223670643
0.2270873436
0.2291532324
0.2298256649
0.2299698255
0.2299922701
0.229996797
0.2299982464
0.2299989025
0.2299992649
0.2299994872
0.2299996307
0.2299997252
0.2299997873
0.2299998277
0.2299998535
0.2299998697
0.2299998797
0.2299998858
0.2299998895
0.2299998917
0.229999893
0.2299998938
0.2299998944
0.2299998948
0.229999895
0.2299998953
0.2299998954
0.2299998956
0.2299998958
0.2299998959
0.229999896
0.2299998961
0.2299998962
0.2299998963
0.2299998964
0.2299998965
0.2299998966
0.2299998967
0.2299998967
0.2299998968
0.2299998969
0.2299998969
0.229999897
0.2299998971
0.2299998971
0.2299998972
0.2299998973
0.2299998974
0.2299998976
0.2299998978
0.2299998981
0.2299998983
0.2299998982
0.01919857665
0.05339822651
0.1065366622
0.1645778714
0.1995657108
0.2162789265
0.223708305
0.2270773958
0.2287445085
0.229590807
0.2299117077
0.2299815148
0.2299943315
0.2299974254
0.2299985284
0.22999906
0.2299993642
0.2299995539
0.2299996767
0.2299997569
0.2299998089
0.229999842
0.2299998627
0.2299998755
0.2299998833
0.229999888
0.2299998908
0.2299998925
0.2299998935
0.2299998942
0.2299998946
0.2299998949
0.2299998952
0.2299998954
0.2299998956
0.2299998957
0.2299998959
0.229999896
0.2299998961
0.2299998962
0.2299998963
0.2299998964
0.2299998965
0.2299998966
0.2299998967
0.2299998967
0.2299998968
0.2299998969
0.2299998969
0.229999897
0.2299998971
0.2299998971
0.2299998972
0.2299998973
0.2299998975
0.2299998977
0.2299998979
0.2299998981
0.2299998983
0.2299998982
0.0370441807
0.08420039031
0.148397011
0.1882269945
0.2089577897
0.2191881016
0.2242252924
0.2268325548
0.2282927004
0.2291905993
0.2297226366
0.2299358227
0.2299854973
0.2299952871
0.2299977806
0.2299987054
0.2299991651
0.2299994333
0.2299996017
0.2299997101
0.2299997799
0.2299998244
0.2299998521
0.2299998692
0.2299998795
0.2299998857
0.2299998894
0.2299998916
0.2299998929
0.2299998937
0.2299998943
0.2299998947
0.2299998949
0.2299998952
0.2299998954
0.2299998955
0.2299998957
0.2299998958
0.2299998959
0.229999896
0.2299998962
0.2299998963
0.2299998963
0.2299998964
0.2299998965
0.2299998966
0.2299998967
0.2299998967
0.2299998968
0.2299998969
0.2299998969
0.229999897
0.2299998971
0.2299998972
0.2299998974
0.2299998976
0.2299998978
0.2299998981
0.2299998983
0.2299998982
0.118046324
0.1507608342
0.1814185488
0.2017417947
0.2136760602
0.2203752056
0.2241732709
0.226414857
0.2278068638
0.2287227284
0.2293629812
0.2297739144
0.2299460827
0.2299874321
0.2299958
0.2299979833
0.2299988111
0.2299992305
0.2299994775
0.2299996326
0.2299997317
0.2299997947
0.2299998341
0.2299998583
0.2299998729
0.2299998816
0.2299998868
0.2299998898
0.2299998917
0.2299998928
0.2299998935
0.229999894
0.2299998943
0.2299998946
0.2299998948
0.229999895
0.2299998951
0.2299998953
0.2299998954
0.2299998955
0.2299998956
0.2299998957
0.2299998958
0.2299998959
0.229999896
0.229999896
0.2299998961
0.2299998962
0.2299998963
0.2299998963
0.2299998964
0.2299998965
0.2299998966
0.2299998967
0.2299998969
0.2299998971
0.2299998973
0.2299998976
0.2299998977
0.2299998976
0.1595738558
0.1790088834
0.1957666344
0.2077817562
0.2156580289
0.2206505823
0.223819297
0.2258764217
0.2272582293
0.2282217162
0.2289190004
0.2294428823
0.2297973509
0.2299512534
0.2299885182
0.2299960944
0.2299980972
0.2299988703
0.2299992667
0.2299995019
0.2299996497
0.2299997436
0.2299998027
0.2299998394
0.2299998617
0.229999875
0.229999883
0.2299998876
0.2299998904
0.229999892
0.229999893
0.2299998936
0.229999894
0.2299998942
0.2299998945
0.2299998947
0.2299998948
0.229999895
0.2299998951
0.2299998952
0.2299998953
0.2299998954
0.2299998955
0.2299998956
0.2299998957
0.2299998957
0.2299998958
0.2299998959
0.229999896
0.229999896
0.2299998961
0.2299998962
0.2299998963
0.2299998964
0.2299998966
0.2299998968
0.229999897
0.2299998973
0.2299998974
0.2299998973
0.1786947034
0.1914909783
0.2023235837
0.2105533009
0.2164261881
0.2204963071
0.2233025199
0.2252594284
0.2266536273
0.2276734769
0.2284393144
0.2290270787
0.2294884946
0.2298119077
0.229955027
0.229989322
0.2299962902
0.2299981644
0.2299988996
0.229999283
0.2299995127
0.2299996573
0.2299997491
0.2299998068
0.2299998425
0.2299998641
0.2299998769
0.2299998844
0.2299998887