/*--------------------------------*- C++ -*----------------------------------*\
  =========                 |
  \\      /  F ield         | OpenFOAM: The Open Source CFD Toolbox
   \\    /   O peration     | Website:  https://openfoam.org
    \\  /    A nd           | Version:  10
     \\/     M anipulation  |
\*---------------------------------------------------------------------------*/
FoamFile
{
    format      ascii;
    class       volScalarField;
    location    "0.02499901733";
    object      p_0;
}
// * * * * * * * * * * * * * * * * * * * * * * * * * * * * * * * * * * * * * //

dimensions      [1 -1 -2 0 0 0 0];

internalField   nonuniform List<scalar> 
5170
(
100902.2171
100903.0239
100904.652
100906.2339
100910.3212
100853.4367
100853.5594
100853.8211
100853.8125
100854.3553
100823.4933
100823.5184
100823.6206
100823.6382
100823.8361
100806.301
100806.3396
100806.3951
100806.4725
100806.344
100781.4247
100781.4498
100781.4859
100781.6129
100781.45
100754.2637
100754.3165
100754.3014
100754.4116
100754.2062
100727.0642
100727.1215
100727.0881
100727.2138
100727.0007
100700.4509
100700.4955
100700.471
100700.5719
100700.3749
100673.5525
100673.5977
100673.5455
100673.6655
100673.4725
100646.8364
100646.9
100646.8235
100646.9939
100646.7434
100621.661
100621.7123
100621.6751
100621.7658
100621.5415
100596.4737
100596.5353
100596.5113
100596.5209
100596.3347
100570.5619
100570.6018
100570.5765
100570.6167
100570.4551
100544.6693
100544.7196
100544.6685
100544.708
100544.5521
100519.2776
100519.3109
100519.2814
100519.3116
100519.1583
100494.413
100494.4608
100494.4143
100494.4566
100494.3127
100469.8511
100469.8874
100469.8923
100469.9043
100469.7723
100445.6828
100445.7233
100445.684
100445.9133
100445.9144
100419.3392
100420.0209
100420.6926
100421.0262
100421.0119
100381.4963
100382.0199
100384.9738
100391.6531
100404.9627
100037.0199
100035.0552
100036.4669
100035.873
100037.6621
100025.1102
100024.9604
100025.1346
100024.8983
100024.9483
100023.0029
100023.0021
100022.9746
100022.951
100022.9224
100020.9982
100021.0104
100020.9751
100020.9565
100020.9446
100018.6363
100018.629
100018.6316
100018.6119
100018.5925
100016.695
100016.6952
100016.7035
100016.6926
100016.6776
100014.819
100014.8144
100014.8208
100014.8163
100014.798
100013.157
100013.1498
100013.1663
100013.1502
100013.1325
100011.5125
100011.5161
100011.5204
100011.5165
100011.5071
100009.9418
100009.9394
100009.9451
100009.9514
100009.9377
100008.4143
100008.4131
100008.4155
100008.4132
100008.4062
100006.8772
100006.8795
100006.8833
100006.88
100006.8749
100005.3493
100005.353
100005.3528
100005.3469
100005.3372
100003.826
100003.8179
100003.7747
100003.7841
100003.7891
100002.3652
100002.3851
100002.3274
100002.1326
100002.221
100000.6858
100000.6039
100000.5245
100000.5038
100000.927
99999.21507
99999.18026
99999.19659
99999.19143
99999.13654
99997.23537
99997.30238
99997.34769
99997.40242
99997.39397
99996.11655
99996.28422
99996.46178
99996.62313
99996.42546
99988.35042
99990.36884
99990.81472
99991.01786
99991.76794
100055.0593
100052.9991
100047.9771
100036.1707
100028.7462
100006.5429
100006.9129
100007.2051
100005.567
100006.0578
100004.9998
100004.8209
100005.184
100004.35
100003.7338
100004.8266
100004.5376
100004.5972
100004.7019
100003.1969
100004.7764
100004.5175
100004.7125
100004.3009
100003.3955
100005.2339
100005.0585
100005.2131
100004.8942
100003.9385
100005.8544
100005.7498
100005.771
100005.2465
100004.5542
100006.3871
100006.4645
100006.3334
100005.6414
100004.999
100006.9799
100006.8983
100006.6343
100005.8678
100005.3078
100007.4229
100007.2931
100006.983
100006.3094
100005.7196
100007.9944
100007.9189
100007.365
100006.6727
100006.1375
100008.7005
100008.4001
100007.774
100007.1241
100006.5696
100009.4569
100008.9544
100008.2419
100007.4886
100006.8801
100010.0801
100009.2935
100008.675
100008.0758
100007.562
100011.0555
100009.5911
100009.1845
100008.6396
100008.1366
100011.3829
100010.2764
100009.6032
100008.9033
100008.4571
100013.4763
100011.6159
100011.0489
100010.3316
100009.6944
100011.5323
100010.7469
100010.4518
100010.097
100009.8551
100007.0949
100005.634
100005.2024
100004.4974
100003.7794
100006.6602
100005.7676
100005.2521
100004.4982
100003.7309
100014.3868
100012.8508
100011.9716
100010.9165
100009.8033
100013.9481
100012.7011
100011.9042
100010.9547
100009.9944
100012.0572
100011.3003
100010.9221
100010.3621
100009.7935
100010.1866
100009.7248
100009.5868
100009.2994
100009.014
100008.3332
100008.0836
100008.0448
100007.9156
100007.7646
100007.0724
100006.9039
100006.9303
100006.8938
100006.8524
100006.0313
100005.9243
100005.9551
100005.9581
100005.937
100005.3052
100005.0334
100005.0822
100005.1171
100005.1104
100004.6209
100004.5475
100004.5791
100004.5937
100004.5935
100004.5687
100004.3128
100004.3474
100004.3569
100004.3673
100004.4828
100004.3651
100004.3835
100004.3996
100004.3882
100004.7712
100004.55
100004.586
100004.5986
100004.5994
100004.9656
100004.9
100004.9095
100004.9145
100004.9213
100005.4189
100005.2153
100005.2552
100005.2653
100005.2482
100005.6022
100005.5321
100005.5467
100005.547
100005.5663
100005.9468
100005.7708
100005.7914
100005.7978
100005.7898
100005.986
100005.9266
100005.9363
100005.9398
100005.9407
100006.1417
100005.9896
100006.0047
100006.0046
100006.0084
100006.0407
100006.0011
100006.0058
100006.0124
100006.0008
100006.12
100005.9726
100005.9881
100005.9941
100005.9925
100005.9913
100005.9564
100005.9663
100005.9614
100005.9721
100006.0659
100005.9325
100005.9315
100005.933
100005.9434
100005.9373
100005.9076
100005.9151
100005.9125
100005.9151
100006.0039
100005.8993
100005.9001
100005.9033
100005.8997
100005.9213
100005.8919
100005.8951
100005.8973
100005.8974
100005.9732
100005.8864
100005.8897
100005.8947
100005.8874
100005.8925
100005.8662
100005.871
100005.8731
100005.8678
100005.9028
100005.8221
100005.8316
100005.8324
100005.8348
100005.7846
100005.7612
100005.766
100005.7646
100005.7706
100005.725
100005.6599
100005.6699
100005.6722
100005.6704
100005.5576
100005.5344
100005.5407
100005.5374
100005.5473
100005.4198
100005.3638
100005.3721
100005.3748
100005.375
100005.1858
100005.1633
100005.1699
100005.1682
100005.1661
100004.9766
100004.9231
100004.9316
100004.9341
100004.9328
100004.672
100004.6623
100004.6629
100004.6621
100004.666
100004.4139
100004.3662
100004.3757
100004.3756
100004.3793
100004.0816
100004.062
100004.0663
100004.0666
100004.0693
100003.7957
100003.7516
100003.7582
100003.7608
100003.7639
100003.458
100003.4444
100003.4463
100003.4464
100003.4517
100003.1865
100003.1475
100003.1538
100003.1554
100003.1551
100002.8742
100002.8636
100002.8667
100002.8664
100002.8653
100002.6277
100002.5943
100002.6003
100002.6011
100002.5997
100002.3474
100002.3354
100002.3378
100002.3381
100002.3377
100002.1041
100002.071
100002.0774
100002.0776
100002.0779
100001.8302
100001.8187
100001.8218
100001.8222
100001.8218
100001.548
100001.5203
100001.526
100001.5257
100001.5267
100001.2815
100001.2721
100001.2744
100001.2738
100001.2746
100000.9249
100000.8988
100000.9033
100000.9039
100000.9032
100000.7436
100000.7315
100000.7332
100000.7332
100000.7336
99999.88529
99999.8629
99999.87401
99999.88713
99999.90329
100001.0955
100005.2766
100002.5921
100002.5603
100002.7067
100003.4689
100004.0277
100004.4065
100004.8239
100005.2473
100005.6521
100006.1534
100006.5822
100007.1175
100007.6833
100008.0018
100009.263
100009.5713
100003.1941
100003.2101
100009.0349
100009.4152
100009.3482
100008.6643
100007.5887
100006.8156
100005.9707
100005.1148
100004.6517
100004.3347
100004.4035
100004.5759
100004.8905
100005.2838
100005.5009
100005.8047
100005.9384
100005.9873
100006.0219
100005.9881
100005.9414
100005.9097
100005.9103
100005.9066
100005.894
100005.9003
100005.8844
100005.825
100005.7517
100005.6773
100005.513
100005.3691
100005.1785
100004.9332
100004.6547
100004.364
100004.0571
100003.7469
100003.4344
100003.1579
100002.8722
100002.6079
100002.3417
100002.0787
100001.8196
100001.5234
100001.2705
100000.9053
100000.7355
99999.93015
99993.6096
99999.76833
99999.00968
100000.4857
99999.8256
100003.5963
100001.966
100000.189
100000.7036
100000.8753
100001.5208
100001.1
100001.1197
100002.2896
100000.9331
100002.2268
100001.9498
100000.5823
100000.7658
100001.411
100001.6487
100001.4967
100001.2308
100000.9264
100001.2172
100002.741
100002.1054
100001.5877
100001.9029
100001.8214
100003.2979
100002.7097
100002.3339
100002.3005
100002.2957
100003.6001
100003.3255
100002.7765
100002.7602
100002.6464
100004.2044
100003.7541
100003.4848
100003.0671
100003.196
100004.6626
100004.2494
100003.7366
100003.3568
100003.4124
100005.0416
100004.4983
100004.271
100003.9376
100003.9864
100005.6526
100005.2451
100004.8885
100004.5442
100004.417
100006.1424
100005.8428
100005.3458
100005.204
100005.2303
100006.565
100005.9984
100005.7162
100005.5604
100005.2806
100007.1786
100006.5937
100006.3725
100006.3221
100005.5721
100007.7471
100007.3008
100006.6751
100006.1925
100006.3293
100008.6944
100008.3709
100008.2728
100008.2515
100007.9216
100009.1905
100009.218
100009.3646
100009.4395
100008.964
100002.4478
100001.4086
100000.2452
99998.95738
99997.6203
100002.522
100001.6305
100000.8923
100000.3289
100000.0698
100007.8604
100006.7649
100005.9135
100005.2818
100004.9534
100008.5161
100007.5359
100006.8136
100006.3356
100006.1017
100008.7976
100008.0652
100007.4828
100007.0844
100006.8834
100008.36
100007.8554
100007.4639
100007.1915
100007.0184
100007.4566
100007.2285
100007.0362
100006.888
100006.7725
100006.7636
100006.6644
100006.5692
100006.4796
100006.3891
100005.9276
100005.8923
100005.846
100005.7959
100005.7314
100005.124
100005.11
100005.0945
100005.0646
100005.0242
100004.6208
100004.6069
100004.5897
100004.5607
100004.5243
100004.3788
100004.365
100004.3399
100004.319
100004.2831
100004.3964
100004.3801
100004.3629
100004.34
100004.3141
100004.5965
100004.5819
100004.5666
100004.5473
100004.5277
100004.9165
100004.9005
100004.8922
100004.8763
100004.8596
100005.2527
100005.2494
100005.2363
100005.2275
100005.2133
100005.555
100005.5418
100005.537
100005.524
100005.5124
100005.7873
100005.7833
100005.7717
100005.7625
100005.7486
100005.9308
100005.9217
100005.9163
100005.902
100005.8927
100005.9923
100005.9861
100005.9793
100005.9726
100005.9616
100006.0025
100006.0001
100005.9944
100005.9879
100005.9799
100005.9894
100005.9844
100005.9786
100005.9744
100005.9652
100005.9637
100005.9571
100005.9518
100005.9477
100005.9423
100005.9375
100005.9296
100005.9253
100005.9211
100005.9161
100005.9127
100005.9098
100005.9074
100005.9043
100005.9005
100005.9006
100005.8974
100005.8979
100005.8929
100005.8924
100005.8962
100005.8938
100005.8933
100005.8907
100005.889
100005.8886
100005.8896
100005.8883
100005.8867
100005.8848
100005.8706
100005.8706
100005.8692
100005.8683
100005.8666
100005.8325
100005.8309
100005.8287
100005.8285
100005.8256
100005.7664
100005.7632
100005.7632
100005.7604
100005.7599
100005.6703
100005.6687
100005.6687
100005.666
100005.6653
100005.5407
100005.5367
100005.5366
100005.5338
100005.5334
100005.3729
100005.3716
100005.3704
100005.3687
100005.3676
100005.1667
100005.1665
100005.1654
100005.1639
100005.1627
100004.9323
100004.9313
100004.9302
100004.9292
100004.9279
100004.6633
100004.6615
100004.661
100004.66
100004.6589
100004.3766
100004.375
100004.3743
100004.3737
100004.3729
100004.0673
100004.0661
100004.0657
100004.0654
100004.0648
100003.7615
100003.7602
100003.7598
100003.76
100003.7596
100003.4485
100003.4475
100003.4477
100003.4475
100003.4476
100003.1556
100003.1557
100003.156
100003.1559
100003.1563
100002.8665
100002.8673
100002.8668
100002.8675
100002.8673
100002.6009
100002.6014
100002.6015
100002.6018
100002.6017
100002.3381
100002.3379
100002.3382
100002.3379
100002.3377
100002.0778
100002.0774
100002.0776
100002.0771
100002.0772
100001.8214
100001.8207
100001.8202
100001.8196
100001.8189
100001.5258
100001.5254
100001.5249
100001.5244
100001.5239
100001.2731
100001.2719
100001.2708
100001.2697
100001.2682
100000.9032
100000.9027
100000.9019
100000.9014
100000.9002
100000.7318
100000.7313
100000.7302
100000.7285
100000.7255
99999.96723
99999.99607
100000.0245
100000.0525
100000.0772
100000.6902
100000.7325
100000.742
100000.7302
100000.7365
100000.7368
100000.7486
100000.7409
100000.7482
100000.7513
100000.76
100000.7685
100000.7775
100000.7922
100000.8103
100000.8308
100000.8556
100000.8842
100000.9162
100000.9519
100000.9906
100001.0323
100001.0769
100001.1253
100001.1772
100001.2317
100001.2893
100001.3487
100001.4097
100001.473
100001.5366
100001.5982
100001.6581
100001.7169
100001.7728
100001.8227
100001.8662
100001.9036
100001.9323
100001.9523
100001.962
100001.9608
100001.9489
100001.9253
100001.8909
100001.8463
100001.7917
100001.7291
100001.6586
100001.5823
100001.5026
100001.419
100001.3368
100001.2582
100001.1856
100001.1194
100001.069
100001.0232
100001.0004
100000.9985
100000.5944
100000.8227
100000.784
100000.797
100000.7966
100000.7866
100000.7901
100000.7826
100000.7881
100000.7854
100000.7869
100000.7877
100000.7922
100000.8007
100000.8103
100000.8237
100000.8417
100000.8629
100000.8883
100000.9179
100000.9522
100000.9907
100001.0333
100001.0798
100001.1297
100001.1831
100001.2393
100001.2982
100001.3592
100001.4217
100001.4849
100001.5482
100001.6104
100001.6706
100001.7276
100001.7806
100001.828
100001.8688
100001.9017
100001.9259
100001.9403
100001.9442
100001.937
100001.9186
100001.8889
100001.8484
100001.7978
100001.7379
100001.6702
100001.596
100001.5175
100001.4368
100001.3563
100001.278
100001.206
100001.1408
100001.0899
100001.0454
100001.0213
100001.0187
100000.9826
100000.997
100000.9065
100000.8692
100000.8669
100000.8397
100000.8381
100000.8272
100000.8188
100000.8145
100000.8092
100000.8065
100000.8074
100000.8095
100000.8139
100000.8215
100000.8325
100000.8463
100000.8645
100000.8864
100000.9121
100000.9423
100000.9767
100001.0155
100001.0587
100001.106
100001.1571
100001.2119
100001.2698
100001.3303
100001.3927
100001.4563
100001.5199
100001.5827
100001.6434
100001.7009
100001.7539
100001.8012
100001.8413
100001.8733
100001.896
100001.9084
100001.91
100001.9004
100001.8793
100001.8471
100001.8042
100001.7515
100001.69
100001.6215
100001.5478
100001.4709
100001.3936
100001.3177
100001.2474
100001.1833
100001.1322
100001.0877
100001.0629
100001.0594
100001.0008
100001.0442
100000.9762
100000.9735
100000.9762
100000.9574
100000.9553
100000.9377
100000.922
100000.906
100000.8916
100000.8787
100000.8661
100000.8543
100000.845
100000.8384
100000.8354
100000.8359
100000.8405
100000.8494
100000.8629
100000.8811
100000.9041
100000.9321
100000.9652
100001.0035
100001.047
100001.0955
100001.1484
100001.2055
100001.2659
100001.3289
100001.3938
100001.4593
100001.5244
100001.5879
100001.6483
100001.7043
100001.7545
100001.7974
100001.8318
100001.8565
100001.8706
100001.8735
100001.8646
100001.8442
100001.8123
100001.7699
100001.7177
100001.6575
100001.5909
100001.52
100001.4474
100001.3751
100001.3071
100001.2444
100001.1935
100001.1488
100001.1222
100001.118
100001.0758
100001.1391
100001.1031
100001.1149
100001.115
100001.1054
100001.0996
100001.0767
100001.06
100001.0337
100001.011
100000.9771
100000.9515
100000.9272
100000.9055
100000.8859
100000.8685
100000.854
100000.8429
100000.8361
100000.8335
100000.8358
100000.8435
100000.8571
100000.8767
100000.9026
100000.9348
100000.9734
100001.018
100001.0684
100001.1242
100001.1847
100001.2493
100001.3164
100001.3852
100001.4548
100001.5231
100001.5889
100001.6506
100001.7066
100001.755
100001.7947
100001.8243
100001.8428
100001.8492
100001.8436
100001.8257
100001.7962
100001.7556
100001.7057
100001.6477
100001.5841
100001.5172
100001.4493
100001.3842
100001.3234
100001.2735
100001.2296
100001.1996
100001.1935
100001.6074
100001.668
100001.6217
100001.5439
100001.5337
100001.471
100001.4396
100001.3944
100001.3513
100001.3023
100001.2558
100001.2076
100001.1614
100001.1168
100001.0683
100001.0244
100000.9835
100000.9465
100000.9131
100000.8836
100000.858
100000.8377
100000.8234
100000.8159
100000.8156
100000.8229
100000.8381
100000.8616
100000.8933
100000.9332
100000.9808
100001.0357
100001.0971
100001.164
100001.2353
100001.3096
100001.3854
100001.4609
100001.5344
100001.604
100001.6678
100001.7241
100001.7711
100001.8074
100001.8315
100001.8431
100001.8414
100001.8269
100001.7999
100001.7621
100001.7144
100001.6596
100001.6
100001.5376
100001.4755
100001.4175
100001.3667
100001.3215
100001.2923
100001.2839
100002.1743
100002.1748
100002.1095
100002.0439
100001.9574
100001.8888
100001.824
100001.7576
100001.6929
100001.6292
100001.5652
100001.496
100001.4293
100001.3619
100001.2957
100001.2307
100001.167
100001.1076
100001.0432
100000.9903
100000.938
100000.8932
100000.8543
100000.8229
100000.7991
100000.7844
100000.779
100000.7838
100000.7986
100000.824
100000.8597
100000.9054
100000.9606
100001.0242
100001.0951
100001.1721
100001.2536
100001.3374
100001.4216
100001.5044
100001.5832
100001.6562
100001.7212
100001.7763
100001.8192
100001.849
100001.8645
100001.8662
100001.8541
100001.8294
100001.7921
100001.7464
100001.6952
100001.6364
100001.5774
100001.5196
100001.4708
100001.4262
100001.3966
100001.3848
100002.6254
100002.5998
100002.5137
100002.4459
100002.3816
100002.3096
100002.2539
100002.1959
100002.1209
100002.0511
100001.9814
100001.9006
100001.8155
100001.7259
100001.6369
100001.5508
100001.4638
100001.3766
100001.2919
100001.2064
100001.1265
100001.0532
100000.9749
100000.9131
100000.8606
100000.8187
100000.7865
100000.7666
100000.7589
100000.7636
100000.7813
100000.8125
100000.8562
100000.9119
100000.9784
100001.0541
100001.1374
100001.2266
100001.3189
100001.4117
100001.5034
100001.5921
100001.6747
100001.7491
100001.8115
100001.86
100001.8938
100001.9134
100001.9167
100001.9056
100001.8784
100001.841
100001.7949
100001.7427
100001.6875
100001.6325
100001.5831
100001.5382
100001.5068
100001.4915
100003.0873
100003.0977
100003.0762
100002.9767
100002.8615
100002.8291
100002.779
100002.7123
100002.6481
100002.5663
100002.4983
100002.3985
100002.306
100002.2072
100002.0975
100001.9853
100001.8751
100001.7613
100001.6454
100001.5304
100001.4189
100001.3119
100001.2107
100001.1144
100001.0254
100000.9483
100000.8824
100000.8289
100000.791
100000.7691
100000.7627
100000.7736
100000.801
100000.844
100000.9013
100000.9724
100001.0538
100001.1466
100001.2426
100001.3423
100001.443
100001.5459
100001.6456
100001.7377
100001.8182
100001.885
100001.9353
100001.9694
100001.9859
100001.9863
100001.9704
100001.9418
100001.9017
100001.8541
100001.8016
100001.7482
100001.6986
100001.6534
100001.6198
100001.6014
100003.4099
100003.5499
100003.5262
100003.434
100003.4009
100003.3431
100003.3379
100003.3064
100003.2614
100003.2057
100003.1213
100003.0295
100002.9254
100002.8195
100002.7036
100002.5708
100002.432
100002.2905
100002.1477
100001.9991
100001.8469
100001.6994
100001.5593
100001.423
100001.2939
100001.1782
100001.0745
100000.9837
100000.911
100000.8557
100000.8202
100000.8049
100000.8093
100000.8336
100000.8769
100000.9377
100001.0137
100001.1029
100001.2018
100001.3082
100001.4185
100001.531
100001.6411
100001.7455
100001.8395
100001.9208
100001.9857
100002.0336
100002.0624
100002.0738
100002.0672
100002.0463
100002.0117
100001.9683
100001.918
100001.8659
100001.8158
100001.7698
100001.7337
100001.7124
100004.0224
100004.0499
100003.9281
100003.9332
100003.9501
100003.9228
100003.9822
100004.0217
100003.9318
100003.9276
100003.8418
100003.7594
100003.646
100003.5218
100003.4015
100003.2756
100003.1212
100002.9459
100002.7723
100002.5903
100002.4008
100002.2129
100002.0267
100001.8452
100001.6736
100001.5123
100001.3641
100001.2319
100001.1184
100001.0255
100000.9555
100000.9089
100000.8864
100000.8877
100000.9122
100000.9583
100001.0241
100001.107
100001.2038
100001.3116
100001.4265
100001.545
100001.6627
100001.776
100001.88
100001.9721
100002.048
100002.1069
100002.146
100002.1666
100002.1678
100002.1532
100002.123
100002.0828
100002.0339
100001.9824
100001.9314
100001.8843
100001.8455
100001.8214
100004.3114
100004.3292
100004.3219
100004.4105
100004.5395
100004.6574
100004.6981
100004.7776
100004.7304
100004.7525
100004.679
100004.5825
100004.4876
100004.3704
100004.223
100004.06
100003.8858
100003.7117
100003.52
100003.2965
100003.0648
100002.8359
100002.6033
100002.375
100002.1554
100001.9447
100001.7484
100001.5704
100001.4127
100001.2786
100001.1699
100001.0881
100001.0342
100001.008
100001.0091
100001.0361
100001.0869
100001.1588
100001.2485
100001.3526
100001.4668
100001.5873
100001.7089
100001.8278
100001.9386
100002.0384
100002.1225
100002.1897
100002.2365
100002.2643
100002.2714
100002.2617
100002.2348
100002.1968
100002.1485
100002.097
100002.0446
100001.9961
100001.9547
100001.928
100004.7884
100005.0453
100004.7821
100004.9542
100005.033
100005.2652
100005.3863
100005.5223
100005.5167
100005.5925
100005.5518
100005.4637
100005.3762
100005.2535
100005.0996
100004.9225
100004.7265
100004.5192
100004.3192
100004.0736
100003.8043
100003.5362
100003.2604
100002.9855
100002.7175
100002.4577
100002.2133
100001.9876
100001.7841
100001.6061
100001.456
100001.3361
100001.2473
100001.1902
100001.1642
100001.1682
100001.1999
100001.2568
100001.3353
100001.4315
100001.5409
100001.6591
100001.7808
100001.9015
100002.0157
100002.1199
100002.209
100002.2815
100002.3334
100002.366
100002.3769
100002.3702
100002.3451
100002.3083
100002.2597
100002.2075
100002.1535
100002.1033
100002.0593
100002.0303
100005.3004
100005.3973
100005.3707
100005.4479
100005.515
100005.6887
100005.7968
100006.2021
100006.1813
100006.3563
100006.3929
100006.3741
100006.2981
100006.1813
100006.0376
100005.862
100005.6492
100005.4184
100005.1883
100004.9096
100004.6114
100004.297
100003.9743
100003.6529
100003.3347
100003.0263
100002.733
100002.459
100002.2089
100001.9863
100001.7943
100001.6353
100001.5105
100001.4211
100001.3661
100001.3452
100001.3555
100001.3948
100001.4591
100001.5444
100001.6458
100001.7586
100001.877
100001.9964
100002.1107
100002.2162
100002.3074
100002.3823
100002.4367
100002.4716
100002.4843
100002.479
100002.4544
100002.4175
100002.3679
100002.3146
100002.2585
100002.2067
100002.1603
100002.1294
100005.9144
100005.5335
100005.9114
100005.9456
100006.1137
100006.4031
100006.7398
100006.9999
100007.188
100007.3006
100007.3577
100007.3617
100007.2776
100007.1473
100006.9867
100006.7889
100006.5653
100006.3332
100006.0532
100005.7382
100005.3984
100005.0438
100004.6826
100004.3175
100003.9555
100003.6025
100003.2644
100002.9463
100002.6532
100002.3892
100002.158
100001.962
100001.8032
100001.6824
100001.5995
100001.5536
100001.5425
100001.5634
100001.6123
100001.6852
100001.7766
100001.8818
100001.9946
100002.11
100002.2218
100002.3259
100002.4163
100002.4911
100002.5455
100002.5806
100002.5931
100002.5875
100002.562
100002.5241
100002.4728
100002.4179
100002.3597
100002.3061
100002.2576
100002.2253
100005.9466
100005.9802
100006.4392
100006.4955
100006.7548
100007.1846
100007.4254
100007.7159
100007.9278
100008.1067
100008.1357
100008.15
100008.0984
100007.9877
100007.8322
100007.6603
100007.4388
100007.1831
100006.8757
100006.5228
100006.1441
100005.7514
100005.3493
100004.9438
100004.5411
100004.1475
100003.7693
100003.4122
100003.0813
100002.7813
100002.5159
100002.288
100002.0997
100001.9519
100001.8445
100001.7768
100001.7463
100001.7504
100001.7849
100001.8456
100001.9268
100002.0236
100002.1295
100002.2395
100002.3469
100002.4475
100002.535
100002.6075
100002.6599
100002.6931
100002.7038
100002.6964
100002.6689
100002.629
100002.5755
100002.5186
100002.4582
100002.4031
100002.3528
100002.3198
100007.162
100007.2758
100007.5579
100007.6975
100008.0645
100008.4127
100008.5736
100008.7168
100009.0768
100009.1382
100009.1321
100009.0972
100009.0238
100008.8948
100008.7175
100008.6129
100008.3091
100007.9641
100007.5891
100007.1895
100006.7716
100006.3408
100005.9027
100005.463
100005.0278
100004.6031
100004.1949
100003.8091
100003.4508
100003.1247
100002.8347
100002.5838
100002.3741
100002.2066
100002.0813
100001.9973
100001.9523
100001.9433
100001.9663
100002.0168
100002.0891
100002.1781
100002.2771
100002.3809
100002.4829
100002.5786
100002.6618
100002.7303
100002.779
100002.809
100002.8163
100002.8061
100002.7755
100002.7332
100002.677
100002.6182
100002.5557
100002.4994
100002.4477
100002.4147
100008.2426
100007.8342
100007.727
100008.7553
100009.1297
100009.0158
100009.036
100009.2079
100009.4183
100009.5229
100009.8303
100009.8172
100009.7249
100009.5627
100009.3437
100009.0816
100008.7703
100008.4185
100008.0325
100007.6191
100007.184
100006.7346
100006.2775
100005.819
100005.3659
100004.9239
100004.4994
100004.0982
100003.7257
100003.3865
100003.0844
100002.8225
100002.6026
100002.4257
100002.2918
100002.1996
100002.147
100002.1309
100002.1471
100002.1911
100002.2571
100002.34
100002.4331
100002.5312
100002.6275
100002.7177
100002.7956
100002.859
100002.9028
100002.9282
100002.9313
100002.9173
100002.8831
100002.8379
100002.7789
100002.7181
100002.6537
100002.5965
100002.5439
100002.5116
99997.09827
99999.0732
100002.4665
100004.5823
100005.8764
100007.1508
100008.2654
100008.9596
100009.4389
100009.697
100009.8398
100009.8687
100009.8147
100009.6774
100009.4796
100009.2206
100008.9102
100008.5569
100008.168
100007.7523
100007.316
100006.8666
100006.4105
100005.9539
100005.5032
100005.0642
100004.6433
100004.2461
100003.8778
100003.5428
100003.2448
100002.9866
100002.7701
100002.5961
100002.4644
100002.3737
100002.3217
100002.3054
100002.3205
100002.3625
100002.4258
100002.5051
100002.5939
100002.6872
100002.7781
100002.8628
100002.9348
100002.9925
100003.0306
100003.0508
100003.0489
100003.0306
100002.9925
100002.9443
100002.8826
100002.8203
100002.7543
100002.6969
100002.644
100002.613
100001.0028
100002.6233
100004.0071
100004.9072
100005.7005
100006.4698
100007.2305
100007.8805
100008.3929
100008.7516
100008.9697
100009.0979
100009.1331
100009.0946
100008.9804
100008.8062
100008.5659
100008.2689
100007.9281
100007.5513
100007.1491
100006.7294
100006.2996
100005.8676
100005.4402
100005.024
100004.6256
100004.2505
100003.9037
100003.5896
100003.3115
100003.0719
100002.8725
100002.7138
100002.5955
100002.5162
100002.4734
100002.4641
100002.484
100002.5289
100002.593
100002.6715
100002.7579
100002.8475
100002.9336
100003.0128
100003.0788
100003.1304
100003.1624
100003.1769
100003.1696
100003.1468
100003.1047
100003.0537
100002.9895
100002.926
100002.8592
100002.802
100002.7495
100002.7205
100005.1615
100005.8718
100006.5437
100007.0848
100007.5334
100007.9463
100008.2932
100008.5786
100008.7817
100008.904
100008.9263
100008.8868
100008.8013
100008.675
100008.5147
100008.3098
100008.0719
100007.7904
100007.4691
100007.1203
100006.7498
100006.3647
100005.9728
100005.5808
100005.1935
100004.8184
100004.4605
100004.1252
100003.8168
100003.5395
100003.296
100003.0887
100002.9186
100002.7864
100002.6912
100002.6318
100002.6055
100002.6093
100002.6392
100002.6908
100002.7589
100002.8387
100002.9242
100003.011
100003.0928
100003.1666
100003.2264
100003.2717
100003.2973
100003.3059
100003.2932
100003.266
100003.2202
100003.1666
100003.1006
100003.0367
100002.9696
100002.9135
100002.8621
100002.8357
100006.1231
100006.3827
100006.6696
100007.0014
100007.2987
100007.5689
100007.8032
100007.9954
100008.139
100008.2226
100008.2473
100008.1958
100008.0958
100007.955
100007.7899
100007.6003
100007.3768
100007.1267
100006.8426
100006.5295
100006.2004
100005.8558
100005.5088
100005.1645
100004.8269
100004.5028
100004.1958
100003.9114
100003.6524
100003.4227
100003.2244
100003.059
100002.9275
100002.8297
100002.7649
100002.7314
100002.7267
100002.748
100002.791
100002.8521
100002.9258
100003.0083
100003.0936
100003.1779
100003.2554
100003.3237
100003.3772
100003.4158
100003.4349
100003.4376
100003.4196
100003.3883
100003.3393
100003.284
100003.2169
100003.1534
100003.087
100003.0328
100002.9833
100002.9599
100006.804
100006.8725
100006.98
100007.0866
100007.1746
100007.2507
100007.3183
100007.3705
100007.4012
100007.404
100007.3711
100007.3039
100007.1881
100007.0455
100006.8804
100006.6941
100006.5008
100006.2852
100006.048
100005.7931
100005.5172
100005.2324
100004.9447
100004.6629
100004.3867
100004.1235
100003.8782
100003.6528
100003.4517
100003.2765
100003.1301
100003.0127
100002.9245
100002.8655
100002.8344
100002.8297
100002.8489
100002.8889
100002.9463
100003.0171
100003.0969
100003.1817
100003.2665
100003.3479
100003.4206
100003.4829
100003.5296
100003.5614
100003.5739
100003.5708
100003.5479
100003.5131
100003.4615
100003.4053
100003.3381
100003.276
100003.2112
100003.1598
100003.1129
100003.0931
100006.8994
100006.8465
100006.7968
100006.7864
100006.7621
100006.7255
100006.6837
100006.6387
100006.5876
100006.5257
100006.4481
100006.3514
100006.2364
100006.0944
100005.9334
100005.7718
100005.593
100005.4107
100005.2228
100005.0219
100004.8104
100004.5861
100004.3652
100004.1471
100003.9381
100003.7415
100003.5625
100003.4013
100003.261
100003.1431
100003.0497
100002.9805
100002.9363
100002.9158
100002.9182
100002.9416
100002.9834
100003.0412
100003.1113
100003.1907
100003.2748
100003.3607
100003.4435
100003.5207
100003.5876
100003.6429
100003.6824
100003.7071
100003.713
100003.7045
100003.6773
100003.6398
100003.5868
100003.5307
100003.4648
100003.4052
100003.3432
100003.2956
100003.2523
100003.2365
100006.6634
100006.5668
100006.4642
100006.347
100006.2207
100006.1047
100005.9831
100005.8606
100005.7438
100005.6296
100005.5148
100005.3987
100005.2779
100005.1486
100005.011
100004.8646
100004.7262
100004.5815
100004.4396
100004.2977
100004.1464
100003.9956
100003.8399
100003.6897
100003.547
100003.4167
100003.3024
100003.2027
100003.1203
100003.0566
100003.0125
100002.9886
100002.9843
100002.9987
100003.0305
100003.078
100003.139
100003.2107
100003.2903
100003.3747
100003.4605
100003.5446
100003.6233
100003.6944
100003.754
100003.8015
100003.8331
100003.8506
100003.8502
100003.8367
100003.806
100003.7668
100003.7135
100003.6589
100003.5954