/*--------------------------------*- C++ -*----------------------------------*\
  =========                 |
  \\      /  F ield         | OpenFOAM: The Open Source CFD Toolbox
   \\    /   O peration     | Website:  https://openfoam.org
    \\  /    A nd           | Version:  10
     \\/     M anipulation  |
\*---------------------------------------------------------------------------*/
FoamFile
{
    format      ascii;
    class       surfaceScalarField;
    location    "0.02499901733";
    object      phi;
}
// * * * * * * * * * * * * * * * * * * * * * * * * * * * * * * * * * * * * * //

dimensions      [1 0 -1 0 0 0 0];

internalField   nonuniform List<scalar> 
10159
(
-9.24518587e-09
1.197945712e-06
-3.963467799e-08
3.597198154e-06
-9.176715048e-08
5.996739779e-06
-1.579106745e-07
8.388037326e-06
1.054307261e-05
-8.896959349e-09
1.206920343e-06
-3.348955466e-08
3.622029913e-06
-7.314841924e-08
6.036775188e-06
-1.18522209e-07
8.433978287e-06
1.042524345e-05
-9.808809005e-09
1.216809069e-06
-3.817741798e-08
3.650621198e-06
-8.34914023e-08
6.082476502e-06
-1.30830288e-07
8.481849743e-06
1.029510105e-05
-1.000819689e-08
1.2268935e-06
-4.039125414e-08
3.681223536e-06
-8.841625557e-08
6.130877523e-06
-1.214510234e-07
8.515402589e-06
1.01743214e-05
-1.105642219e-08
1.238024123e-06
-4.33694114e-08
3.713755652e-06
-9.238402533e-08
6.180262272e-06
-1.197819241e-07
8.543312995e-06
1.005520068e-05
-1.125925008e-08
1.249349207e-06
-4.413763552e-08
3.746831588e-06
-9.233937447e-08
6.228793159e-06
-1.147323533e-07
8.566166112e-06
9.941058986e-06
-1.110889318e-08
1.26052331e-06
-4.346020733e-08
3.77937365e-06
-9.18326241e-08
6.277492226e-06
-1.095114907e-07
8.584290041e-06
9.832134366e-06
-1.114091793e-08
1.271728793e-06
-4.311126573e-08
3.811545636e-06
-8.695351814e-08
6.321664593e-06
-1.023321626e-07
8.600125878e-06
9.730392755e-06
-1.071641828e-08
1.282484576e-06
-4.170853859e-08
3.842658668e-06
-8.436851605e-08
6.364541358e-06
-9.643458201e-08
8.61247195e-06
9.634319432e-06
-9.675464611e-09
1.292193916e-06
-3.849008948e-08
3.871575803e-06
-8.899448109e-08
6.415214538e-06
-9.262100854e-08
8.616341189e-06
9.542010276e-06
-9.779214804e-09
1.302021864e-06
-3.814821519e-08
3.900091737e-06
-8.049485574e-08
6.457786347e-06
-8.23587515e-08
8.618541924e-06
9.460093351e-06
-1.015078221e-08
1.312217604e-06
-3.896832123e-08
3.929043599e-06
-6.8527507e-08
6.487564551e-06
-7.048879325e-08
8.62081891e-06
9.390014712e-06
-9.939697076e-09
1.322199994e-06
-3.781921761e-08
3.957056289e-06
-6.498277817e-08
6.51495224e-06
-6.28927346e-08
8.61903929e-06
9.327512955e-06
-9.370388046e-09
1.331615815e-06
-3.561878083e-08
3.983441876e-06
-6.264630616e-08
6.542214776e-06
-5.73042708e-08
8.614014978e-06
9.270616987e-06
-9.023502637e-09
1.340688721e-06
-3.380020232e-08
4.008365889e-06
-5.987252288e-08
6.568533267e-06
-5.020332264e-08
8.604689451e-06
9.220858011e-06
-8.635572975e-09
1.349374149e-06
-3.237665605e-08
4.032258347e-06
-5.747070649e-08
6.593872726e-06
-4.374513329e-08
8.59132038e-06
9.177563429e-06
-8.332639532e-09
1.357754477e-06
-3.040653321e-08
4.054474218e-06
-5.194784513e-08
6.615648114e-06
-3.69899492e-08
8.576692125e-06
9.140996202e-06
-8.257699968e-09
1.366052969e-06
-3.144323694e-08
4.077786838e-06
-5.324685308e-08
6.637662686e-06
-3.576530779e-08
8.559491391e-06
9.105609662e-06
-1.060812704e-08
1.376690724e-06
-4.146057821e-08
4.108726051e-06
-8.650110692e-08
6.68280042e-06
-6.636712209e-08
8.539635324e-06
9.03944232e-06
-6.550897155e-08
1.442214544e-06
-2.656326002e-07
4.308953999e-06
-5.256753478e-07
6.942897047e-06
-7.426123317e-07
8.756672323e-06
8.297002699e-06
9.586208195e-08
7.153513985e-07
-3.062361478e-08
1.132357061e-06
-1.542903108e-07
1.324454216e-06
-3.040737519e-07
1.544950558e-06
1.2868628e-06
3.239858784e-08
6.827430194e-07
-3.096867416e-08
1.195382783e-06
-1.091991692e-07
1.402559657e-06
-1.481552995e-07
1.583163565e-06
1.138290277e-06
2.568580959e-08
6.568956144e-07
-1.103621543e-08
1.232082041e-06
-9.025668165e-08
1.481543151e-06
-1.024072486e-07
1.595318064e-06
1.035716407e-06
2.102766371e-08
6.359189815e-07
-1.398519972e-09
1.254483182e-06
-6.287324892e-08
1.543033162e-06
-7.537279596e-08
1.607869031e-06
9.60336202e-07
1.723522116e-08
6.187336909e-07
2.554319345e-09
1.269194904e-06
-4.00052512e-08
1.585585976e-06
-4.505120506e-08
1.613132419e-06
9.1539201e-07
1.487888369e-08
6.038222965e-07
4.125012819e-09
1.27988631e-06
-2.674155424e-08
1.616560542e-06
-2.806261821e-08
1.614548053e-06
8.875429168e-07
1.231035976e-08
5.915237891e-07
5.891485813e-09
1.286212792e-06
-1.675544097e-08
1.639109135e-06
-1.435120616e-08
1.612205419e-06
8.730931185e-07
8.138308445e-09
5.833090707e-07
3.083167391e-09
1.291285806e-06
-8.046113986e-09
1.650250819e-06
-4.63047703e-09
1.608792732e-06
8.685099713e-07
4.949914548e-09
5.783462787e-07
1.578438766e-09
1.294621152e-06
-4.242705672e-09
1.655917608e-06
6.113955148e-10
1.603913977e-06
8.689948816e-07
2.851988628e-09
5.754537642e-07
2.080130822e-10
1.297216732e-06
-2.754253257e-09
1.658827669e-06
2.618531208e-09
1.598800803e-06
8.71441992e-07
1.0792893e-09
5.742941081e-07
-8.236843343e-10
1.299331632e-06
-1.58633137e-09
1.659816749e-06
3.480327427e-09
1.593709974e-06
8.748675233e-07
2.487462793e-10
5.740292523e-07
-1.174249348e-09
1.300757278e-06
-4.094306898e-10
1.659058503e-06
4.025649096e-09
1.589168083e-06
8.788610026e-07
-4.360387131e-10
5.744462442e-07
-1.687933316e-09
1.301990002e-06
-3.196077404e-10
1.657615405e-06
3.678685971e-09
1.585150364e-06
8.825590148e-07
-5.448588179e-10
5.750386593e-07
-4.30317932e-10
1.301881882e-06
2.07444951e-09
1.655219123e-06
4.661476588e-09
1.582332526e-06
8.872962099e-07
-2.574398626e-09
5.781096452e-07
-5.624081077e-09
1.304505318e-06
-2.093708706e-09
1.652115161e-06
2.49046275e-09
1.577272914e-06
8.897728606e-07
-3.497505255e-09
5.814437652e-07
-3.684052267e-09
1.305134665e-06
-2.208761426e-10
1.648195819e-06
5.733128069e-09
1.572275995e-06
8.946686136e-07
-1.011236255e-08
5.916878125e-07
-1.309204366e-08
1.307867235e-06
-8.654955212e-09
1.643882751e-06
-2.363363507e-09
1.567116044e-06
8.911011217e-07
-3.624142874e-08
6.279104141e-07
-4.045445405e-08
1.311971362e-06
-2.827947467e-08
1.631900007e-06
-1.188209498e-08
1.550997956e-06
8.788959938e-07
-9.980916571e-08
7.280433442e-07
-1.00436469e-07
1.312942733e-06
-7.558226931e-08
1.606803782e-06
-4.072474797e-08
1.515033877e-06
8.390930429e-07
-7.775816449e-07
1.503249886e-06
-7.33359098e-07
1.272331026e-06
-4.530799772e-07
1.327811363e-06
-1.742231671e-07
1.230610343e-06
6.678213784e-07
8.234875692e-09
1.434360783e-06
5.509314432e-08
4.261892707e-06
1.864558984e-07
6.811935818e-06
6.748645316e-07
8.268796503e-06
6.385399619e-06
2.581425329e-06
8.162469329e-10
1.433023061e-06
1.246443459e-08
4.251684845e-06
8.801162808e-08
6.736593947e-06
5.165717426e-07
7.837492102e-06
5.813339806e-06
1.092835627e-06
1.977607617e-09
1.430724677e-06
1.929230413e-08
4.233599249e-06
1.445841364e-07
6.612257045e-06
6.443653013e-07
7.336208083e-06
5.462829104e-06
9.991665282e-07
3.026781647e-09
1.427757103e-06
2.931026274e-08
4.20762437e-06
2.028070579e-07
6.438476359e-06
7.243421199e-07
6.815553037e-06
5.227800782e-06
9.620291954e-07
4.779832969e-09
1.423106458e-06
4.429280388e-08
4.167311636e-06
2.798164555e-07
6.203351441e-06
7.748719603e-07
6.321246345e-06
5.04976775e-06
9.527652844e-07
7.342753049e-09
1.415865486e-06
6.835914533e-08
4.106188338e-06
3.624554022e-07
5.908004745e-06
8.025205603e-07
5.881105423e-06
4.890774392e-06
9.614355267e-07
1.050989835e-08
1.405106713e-06
9.96824716e-08
4.017550524e-06
4.319075899e-07
5.574339954e-06
8.124855513e-07
5.500159934e-06
4.737097565e-06
9.645224837e-07
1.577851632e-08
1.389363602e-06
1.387616457e-07
3.894789122e-06
4.898988728e-07
5.223483641e-06
8.180106334e-07
5.171914771e-06
4.592471351e-06
9.61260272e-07
2.477338756e-08
1.364541067e-06
1.862188872e-07
3.733591328e-06
5.383319395e-07
4.872019818e-06
8.280268294e-07
4.882688453e-06
4.455034488e-06
9.654452295e-07
3.62512162e-08
1.328266325e-06
2.332914088e-07
3.537187181e-06
5.703901879e-07
4.536221904e-06
8.300209198e-07
4.6237223e-06
4.323879863e-06
9.61102478e-07
5.587587477e-08
1.272713386e-06
2.870598165e-07
3.306487714e-06
6.025472646e-07
4.221264182e-06
8.40959888e-07
4.38598608e-06
4.196008834e-06
9.69258944e-07
7.761954852e-08
1.194877423e-06
3.258541669e-07
3.058240031e-06
6.159903594e-07
3.931578898e-06
8.376748004e-07
4.16549e-06
4.06906845e-06
9.657428596e-07
9.786113831e-08
1.097419122e-06
3.519178068e-07
2.804835916e-06
6.244464355e-07
3.65943236e-06
8.354542194e-07
3.954801436e-06
3.939903896e-06
9.660429219e-07
1.128146362e-07
9.842972193e-07
3.679845135e-07
2.549391509e-06
6.305369087e-07
3.397478616e-06
8.382422042e-07
3.748421611e-06
3.80462181e-06
9.744215444e-07
1.144060571e-07
8.698430275e-07
3.635974779e-07
2.300517195e-06
6.19490135e-07
3.14224922e-06
8.281628352e-07
3.54078419e-06
3.658754318e-06
9.746760134e-07
1.090229047e-07
7.604328299e-07
3.52142388e-07
2.056324657e-06
6.105277888e-07
2.882921552e-06
8.305944705e-07
3.32077208e-06
3.494553433e-06
9.957542441e-07
1.00328618e-07
6.599068736e-07
3.342535424e-07
1.821988454e-06
5.935377443e-07
2.623087961e-06
8.234310867e-07
3.090019734e-06
3.311055603e-06
1.005896644e-06
8.429491189e-08
5.755031153e-07
2.890239001e-07
1.61696076e-06
5.272590148e-07
2.384414581e-06
7.449263822e-07
2.871507834e-06
3.134423292e-06
9.208556843e-07
6.955965886e-08
5.061038938e-07
2.477705796e-07
1.43897796e-06
4.667726675e-07
2.165804348e-06
6.733600573e-07
2.666343506e-06
2.975473312e-06
8.363216259e-07
6.175635294e-08
4.4435504e-07
2.208460985e-07
1.280286103e-06
4.17678498e-07
1.97138794e-06
5.993056851e-07
2.49226908e-06
2.859753917e-06
7.315503481e-07
5.762330992e-08
3.872383386e-07
2.064510685e-07
1.134544855e-06
3.923091988e-07
1.79465501e-06
5.63427319e-07
2.340052635e-06
2.770359082e-06
6.860755981e-07
4.740562936e-08
3.426923732e-07
1.736922423e-07
1.017769569e-06
3.399731228e-07
1.646903898e-06
5.049807364e-07
2.206059362e-06
2.685928827e-06
6.366196241e-07
3.3967117e-08
3.136815129e-07
1.282734433e-07
9.387380763e-07
2.621275131e-07
1.540248698e-06
4.092714243e-07
2.100517203e-06
2.608955023e-06
5.449123199e-07
2.49739782e-08
2.951989848e-07
9.657371745e-08
8.868267741e-07
2.04163948e-07
1.466511902e-06
3.324614093e-07
2.02193221e-06
2.544336646e-06
4.637571855e-07
1.811991268e-08
2.844287467e-07
7.14648571e-08
8.556670014e-07
1.547176087e-07
1.420815955e-06
2.589945124e-07
1.971291981e-06
2.500121749e-06
3.737245453e-07
1.357347059e-08
2.783747134e-07
5.447063095e-08
8.374832177e-07
1.203264059e-07
1.392983995e-06
2.069286623e-07
1.93850325e-06
2.468446183e-06
3.083300378e-07
1.115228741e-08
2.745304396e-07
4.496100691e-08
8.254978761e-07
1.007087709e-07
1.37372342e-06
1.762397415e-07
1.914207646e-06
2.442321112e-06
2.677687027e-07
9.598545111e-09
2.715653264e-07
3.913349512e-08
8.160496917e-07
8.807770749e-08
1.358010512e-06
1.554671398e-07
1.89324727e-06
2.417757041e-06
2.392819348e-07
9.060389339e-09
2.683264101e-07
3.682281818e-08
8.058929761e-07
8.298728907e-08
1.340892017e-06
1.469348919e-07
1.869654154e-06
2.388610911e-06
2.276737306e-07
9.17945804e-09
2.641152837e-07
3.694299986e-08
7.928846262e-07
8.328225181e-08
1.319051332e-06
1.475901811e-07
1.83930151e-06
2.350413272e-06
2.288177762e-07
9.491956221e-09
2.5863286e-07
3.828051374e-08
7.762088739e-07
8.603475004e-08
1.291203946e-06
1.52398877e-07
1.800609484e-06
2.301499342e-06
2.360767675e-07
9.729373133e-09
2.521011071e-07
3.907726361e-08
7.56409462e-07
8.789429243e-08
1.25823045e-06
1.554256097e-07
1.754826961e-06
2.243564603e-06
2.415598265e-07
9.561876033e-09
2.449664372e-07
3.852570188e-08
7.348596954e-07
8.666153962e-08
1.222353827e-06
1.532585098e-07
1.705010236e-06
2.180480818e-06
2.380334702e-07
9.082753968e-09
2.377311552e-07
3.653170693e-08
7.129965279e-07
8.206357734e-08
1.185977999e-06
1.452639555e-07
1.654490671e-06
2.116444335e-06
2.254917065e-07
8.403865927e-09
2.307013993e-07
3.361726244e-08
6.918080653e-07
7.556927791e-08
1.150721132e-06
1.338607474e-07
1.605506865e-06
2.054301877e-06
2.077327958e-07
7.590702605e-09
2.240366166e-07
3.05528758e-08
6.717185137e-07
6.875933458e-08
1.11731923e-06
1.215429009e-07
1.559101923e-06
1.995403454e-06
1.890561508e-07
6.948148742e-09
2.177471765e-07
2.773556658e-08
6.528244474e-07
6.235640501e-08
1.085925534e-06
1.10375248e-07
1.515495465e-06
1.940036401e-06
1.715505748e-07
6.335086446e-09
2.118279682e-07
2.534688415e-08
6.35036034e-07
5.70059154e-08
1.056390919e-06
1.008281392e-07
1.474483918e-06
1.887948849e-06
1.568436192e-07
5.815311433e-09
2.062220589e-07
2.34448016e-08
6.182350825e-07
5.264978483e-08
1.028509213e-06
9.311888745e-08
1.435768345e-06
1.838771167e-06
1.441861329e-07
5.500935904e-09
2.009091627e-07
2.188028502e-08
6.022973262e-07
4.901201751e-08
1.002074285e-06
8.694783344e-08
1.399072682e-06
1.79214993e-06
1.346095677e-07
5.16580288e-09
1.958538353e-07
2.055513628e-08
5.871614381e-07
4.60923321e-08
9.769719235e-07
8.162279729e-08
1.364219678e-06
1.747856474e-06
1.265826156e-07
4.854309421e-09
1.910472173e-07
1.942125828e-08
5.727568046e-07
4.360121356e-08
9.530837202e-07
7.708557797e-08
1.331050751e-06
1.705693415e-06
1.199768448e-07
4.625689394e-09
1.864626289e-07
1.843455743e-08
5.590366013e-07
4.135634169e-08
9.303323044e-07
7.317513244e-08
1.29945138e-06
1.665503938e-06
1.137893481e-07
4.382535135e-09
1.820975723e-07
1.752052888e-08
5.459598751e-07
3.937338875e-08
9.086429444e-07
6.958314535e-08
1.269318254e-06
1.627164649e-06
1.084230141e-07
4.181504034e-09
1.779238791e-07
1.67403224e-08
5.334737608e-07
3.755412337e-08
8.879351042e-07
6.644624351e-08
1.240541442e-06
1.590533912e-06
1.031096781e-07
3.998933831e-09
1.739417995e-07
1.599268221e-08
5.215462838e-07
3.585342679e-08
8.68148958e-07
6.348784915e-08
1.213036494e-06
1.555502457e-06
9.863553377e-08
3.833827659e-09
1.701253309e-07
1.530407855e-08
5.101316752e-07
3.431364873e-08
8.492122137e-07
6.079745434e-08
1.186703364e-06
1.521950608e-06
9.442141915e-08
3.680396827e-09
1.664728271e-07
1.467144115e-08
4.991923823e-07
3.28895441e-08
8.310610992e-07
5.826742433e-08
1.161457715e-06
1.48977221e-06
9.070934853e-08
3.532565837e-09
1.629678571e-07
1.406878169e-08
4.887032892e-07
3.156616722e-08
8.136495041e-07
5.591252059e-08
1.137230095e-06
1.458878121e-06
8.708431286e-08
3.39120269e-09
1.595998045e-07
1.352805898e-08
4.786177732e-07
3.035001011e-08
7.96911825e-07
5.37827841e-08
1.113937612e-06
1.429164709e-06
8.376267025e-08
3.256802895e-09
1.563594084e-07
1.301551986e-08
4.689225833e-07
2.920612351e-08
7.808153041e-07
5.171500136e-08
1.091529654e-06
1.400570525e-06
8.060802654e-08
3.129534094e-09
1.532440067e-07
1.251656379e-08
4.59592857e-07
2.811555495e-08
7.653266312e-07
4.977237231e-08
1.069963334e-06
1.373040481e-06
7.75422808e-08
3.037700333e-09
1.502442887e-07
1.205070707e-08
4.506155618e-07
2.702136042e-08
7.504173127e-07
4.796443009e-08
1.049198469e-06
1.346524621e-06
7.448319968e-08
2.902399326e-09
1.473553666e-07
1.160897194e-08
4.419628079e-07
2.605597037e-08
7.360477338e-07
4.617985739e-08
1.029181818e-06
1.320957289e-06
7.202892787e-08
2.808425857e-09
1.445676529e-07
1.117867425e-08
4.336177843e-07
2.515111151e-08
7.221842623e-07
4.452301569e-08
1.009864496e-06
1.296277745e-06
6.939935847e-08
2.705028384e-09
1.418790202e-07
1.079521965e-08
4.255623016e-07
2.422929793e-08
7.088018091e-07
4.29815394e-08
9.91215631e-07
1.272445161e-06
6.694331669e-08
2.603261051e-09
1.392792464e-07
1.042693194e-08
4.177767239e-07
2.341346838e-08
6.958626648e-07
4.153995122e-08
9.731794833e-07
1.249391255e-06
6.450002472e-08
2.509618867e-09
1.367703714e-07
1.005460154e-08
4.102571027e-07
2.259313786e-08
6.833658523e-07
4.007913715e-08
9.557580155e-07
1.2271173e-06
6.225608243e-08
2.442467789e-09
1.343390618e-07
9.721282949e-09
4.029727035e-07
2.188646028e-08
6.712553791e-07
3.878985924e-08
9.388704639e-07
1.20552269e-06
6.028744137e-08
2.350873518e-09
1.319949462e-07
9.384773769e-09
3.959444942e-07
2.10705086e-08
6.59571177e-07
3.74193619e-08
9.225762569e-07
1.184680811e-06
5.811083015e-08
2.277902885e-09
1.297164934e-07
9.108202513e-09
3.891167861e-07
2.048104226e-08
6.482164248e-07
3.633761817e-08
9.067371293e-07
1.164417587e-06
5.640996615e-08
2.192265639e-09
1.275271465e-07
8.745926821e-09
3.825517992e-07
1.9688399e-08
6.373000382e-07
3.49370542e-08
8.915081306e-07
1.144929767e-06
5.425109158e-08
2.141306317e-09
1.253868717e-07
8.557481135e-09
3.761386611e-07
1.923435146e-08
6.266329552e-07
3.41464557e-08
8.766232858e-07
1.125877687e-06
5.306089696e-08
2.03835736e-09
1.233525199e-07
8.148340591e-09
3.700383414e-07
1.829253799e-08
6.16487235e-07
3.251556527e-08
8.624646924e-07
1.107751699e-06
5.044746294e-08
2.027550249e-09
1.213279334e-07
8.110367634e-09
3.639742124e-07
1.820296333e-08
6.064005088e-07
3.232897565e-08
8.483858877e-07
1.089721872e-06
5.036989926e-08
1.898952256e-09
1.194352842e-07
7.589673908e-09
3.582975947e-07
1.706005509e-08
5.969584608e-07
3.027681453e-08
8.352067602e-07
1.072848757e-06
4.717811491e-08
1.967937961e-09
1.174721862e-07
7.864434471e-09
3.524191797e-07
1.768178484e-08
5.871769528e-07
3.138362e-08
8.215445006e-07
1.055332586e-06
4.891492709e-08
1.756345347e-09
1.157198644e-07
7.043862724e-09
3.471483818e-07
1.586683275e-08
5.783913271e-07
2.82003366e-08
8.092555008e-07
1.039570652e-06
4.398259001e-08
2.125625587e-09
1.13600926e-07
8.468162913e-09
3.408193906e-07
1.902310471e-08
5.678690492e-07
3.374948404e-08
7.945709343e-07
1.020733227e-06
5.263604397e-08
1.563057997e-09
6.300010876e-09
1.420010221e-08
2.521494212e-08
3.926934392e-08
1.376423938e-06
1.211020288e-06
1.415400863e-06
1.051110637e-06
1.441902338e-06
9.675884147e-07
1.45960926e-06
9.421239698e-07
1.467875824e-06
9.446240943e-07
1.465534805e-06
9.637462095e-07
1.455244469e-06
9.744369268e-07
1.441131172e-06
9.747140824e-07
1.42415726e-06
9.823956023e-07
1.405044636e-06
9.802911362e-07
1.383616971e-06
9.907203291e-07
1.359448475e-06
9.903505546e-07
1.332189343e-06
9.934248332e-07
1.300839353e-06
1.006686168e-06
1.264393337e-06
1.011215574e-06
1.220617073e-06
1.040991939e-06
1.168357403e-06
1.057221161e-06
1.116893859e-06
9.718986965e-07
1.077090345e-06
8.784682719e-07
1.05524664e-06
7.622803737e-07
1.04269628e-06
7.137065763e-07
1.029454652e-06
6.707079785e-07
1.013496526e-06
5.858526665e-07
9.976710501e-07
5.07841755e-07
9.859678525e-07
4.142991539e-07
9.765792155e-07
3.459250864e-07
9.678508567e-07
3.032057188e-07
9.5896114e-07
2.717277032e-07
9.478614155e-07
2.58884624e-07
9.330321653e-07
2.606191991e-07
9.139038076e-07
2.692248096e-07
8.911791532e-07
2.744141363e-07
8.66394609e-07
2.708146748e-07
8.411980926e-07
2.569265412e-07
8.167173388e-07
2.368937011e-07
7.934906249e-07
2.152395576e-07
7.716424e-07
1.953463102e-07
7.510726987e-07
1.784893969e-07
7.316478467e-07
1.651387142e-07
7.132245158e-07
1.539436276e-07
6.957153816e-07
1.445874901e-07
6.790406723e-07
1.364925425e-07
6.631420793e-07
1.296159246e-07
6.479683108e-07
1.232815064e-07
6.334672707e-07
1.179099731e-07
6.195927585e-07
1.126504488e-07
6.062999658e-07
1.07884856e-07
5.935466588e-07
1.033743059e-07
5.812985587e-07
9.924010292e-08
5.695146032e-07
9.544740796e-08
5.581715734e-07
9.184139348e-08
5.472466906e-07
8.845033213e-08
5.367231993e-07
8.527043267e-08
5.265719045e-07
8.203715753e-08
5.167723216e-07
7.919464096e-08
5.07305568e-07
7.640875784e-08
4.981478383e-07
7.395268663e-08
4.892965416e-07
7.136891739e-08
4.807146535e-07
6.911187894e-08
4.72428885e-07
6.663820066e-08
4.643729712e-07
6.477435913e-08
4.566230391e-07
6.226461974e-08
4.490450111e-07
6.086285362e-08
4.418357608e-07
5.79597787e-08
4.346600853e-07
5.758546977e-08
4.279514812e-07
5.393683808e-08
4.209701772e-07
5.597573407e-08
4.147030621e-07
5.03167782e-08
4.071612738e-07
6.019410278e-08
4.477313633e-08
-4.539447836e-07
3.156343394e-06
-7.37882697e-07
1.567490252e-06
-6.09490034e-07
1.196903307e-06
-3.978887144e-07
1.023075339e-06
6.118069591e-07
-3.544763076e-07
4.277678427e-07
3.779271062e-06
-1.140922277e-07
2.117440874e-06
-2.225541032e-07
1.296413984e-06
-1.897086292e-07
1.001305235e-06
7.120122711e-07
-2.898724688e-07
5.662052486e-07
4.174741402e-06
1.043091562e-07
2.580583543e-06
-1.342664815e-07
1.528345031e-06
-2.818634885e-07
1.160208639e-06
8.902574351e-07
-4.615382131e-07
6.317199055e-07
4.485557529e-06
2.55309535e-07
2.95774764e-06
-4.080273356e-08
1.82621242e-06
-2.482953731e-07
1.36722919e-06
1.127461496e-06
-4.930486293e-07
7.120338259e-07
4.718638669e-06
4.020043925e-07
3.267844621e-06
7.90258579e-08
2.153551268e-06
-1.364470826e-07
1.576236939e-06
1.341603881e-06
-3.516127027e-07
7.885431617e-07
4.890929031e-06
5.191368355e-07
3.537871544e-06
2.105984952e-07
2.463024633e-06
7.417661263e-09
1.777237004e-06
1.528480044e-06
-1.758962692e-07
8.474845865e-07
5.015906305e-06
6.075323682e-07
3.77431217e-06
3.226116644e-07
2.744377741e-06
1.189387656e-07
1.982298846e-06
1.709949254e-06
-5.646737787e-08
8.796522938e-07
5.108221391e-06
6.708846486e-07
3.981951399e-06
4.081388381e-07
3.004609572e-06
1.852300217e-07
2.205998926e-06
1.886247618e-06
1.172880051e-08
9.156392999e-07
5.173664182e-06
7.352834808e-07
4.161967245e-06
4.956925262e-07
3.242674748e-06
2.519907045e-07
2.449100981e-06
2.058965945e-06
7.91765762e-08
9.379009823e-07
5.216621517e-06
7.827444623e-07
4.316529141e-06
5.672595548e-07
3.456980624e-06
3.342405077e-07
2.682647645e-06
2.227097875e-06
1.664414659e-07
9.691803835e-07
5.238139085e-06
8.424223801e-07
4.444869916e-06
6.540934257e-07
3.647219649e-06
4.36861937e-07
2.900298049e-06
2.388317312e-06
2.774113835e-07
9.926598297e-07
5.23734316e-06
8.927754749e-07
4.54633047e-06
7.26503458e-07
3.814673027e-06
5.235786629e-07
3.104699668e-06
2.553104123e-06
3.583393193e-07
1.019063408e-06
5.215789862e-06
9.456942526e-07
4.62328463e-06
8.023361063e-07
3.958881203e-06
6.220327261e-07
3.291002188e-06
2.726131769e-06
4.467352149e-07
1.054790321e-06
5.168172784e-06
1.006993974e-06
4.672087896e-06
8.920266772e-07
4.075973217e-06
7.3248206e-07
3.452386364e-06
2.893648906e-06
5.660698498e-07
1.084343426e-06
5.09403397e-06
1.068426458e-06
4.688115763e-06
9.913102404e-07
4.158243699e-06
8.679002312e-07
3.577594246e-06
3.0294541e-06
7.299617567e-07
1.152833358e-06
4.98555042e-06
1.180753801e-06
4.661360438e-06
1.145433008e-06
4.192038182e-06
1.075881126e-06
3.649652878e-06
3.112391261e-06
9.952054271e-07
1.20618106e-06
4.834874563e-06
1.278592403e-06
4.587192685e-06
1.300967568e-06
4.167579706e-06
1.29198722e-06
3.653032211e-06
3.130370327e-06
1.262779405e-06
1.11069415e-06
4.694787608e-06
1.163711615e-06
4.531617847e-06
1.156187262e-06
4.16896142e-06
1.126310402e-06
3.669101261e-06
3.127518006e-06
1.106154548e-06
9.845261343e-07
4.608561678e-06
9.789155636e-07
4.585429101e-06
8.745685751e-07
4.366347105e-06
6.639164913e-07
4.002717923e-06
3.58828465e-06
2.804139572e-07
7.921225866e-07
4.637397907e-06
6.674702902e-07
4.82204834e-06
3.89733616e-07
4.840944253e-06
-5.465891786e-08
4.756196318e-06
4.648058377e-06
-6.850434324e-07
7.241259699e-07
4.719179316e-06
5.794800786e-07
5.118171573e-06
2.892737865e-07
5.369177004e-06
-1.384982188e-07
5.53977519e-06
5.697662277e-06
-6.905923986e-07
7.238021993e-07
4.782495431e-06
6.322839843e-07
5.383812368e-06
4.013069068e-07
5.850463321e-06
4.667177106e-08
6.238614601e-06
6.596744061e-06
-4.04368613e-07
6.969108708e-07
4.805249786e-06
6.975881065e-07
5.57086303e-06
5.795205159e-07
6.218784934e-06
3.53999752e-07
6.783325139e-06
7.291025395e-06
4.731722914e-08
6.583714779e-07
4.798010056e-06
7.389632319e-07
5.681434054e-06
7.37987115e-07
6.461996067e-06
6.58624677e-07
7.155997387e-06
7.77522232e-06
5.131044674e-07
5.751854753e-07
4.782533119e-06
7.057756028e-07
5.738004472e-06
7.915382045e-07
6.604697871e-06
8.282480106e-07
7.386332304e-06
8.084347966e-06
8.17371232e-07
5.100715021e-07
4.758478841e-06
6.709576055e-07
5.752877483e-06
8.150800939e-07
6.669735423e-06
9.342809288e-07
7.505424055e-06
8.255054103e-06
1.0240589e-06
4.648424829e-07
4.726607317e-06
6.399490157e-07
5.738094433e-06
8.172077881e-07
6.680002309e-06
9.876057434e-07
7.545268942e-06
8.326171222e-06
1.14325038e-06
4.258763874e-07
4.688342798e-06
6.008869521e-07
5.704381836e-06
7.882425458e-07
6.656053638e-06
9.795241918e-07
7.53497855e-06
8.332737834e-06
1.166351996e-06
4.10206265e-07
4.636830325e-06
5.861742735e-07
5.649024236e-06
7.79948535e-07
6.600531632e-06
9.841307897e-07
7.482717383e-06
8.287259269e-06
1.190695479e-06
4.143899628e-07
4.566171589e-06
5.951973592e-07
5.568140987e-06
7.970933518e-07
6.512555428e-06
1.013233637e-06
7.391001952e-06
8.195668961e-06
1.236229591e-06
4.282395202e-07
4.474338685e-06
6.161564072e-07
5.460926734e-06
8.271003512e-07
6.39328162e-06
1.054554434e-06
7.26341296e-06
8.064118071e-06
1.291407618e-06
4.373807346e-07
4.364876021e-06
6.298884194e-07
5.332116119e-06
8.466638998e-07
6.2488496e-06
1.081344348e-06
7.10757887e-06
7.901707205e-06
1.326914635e-06
4.317499032e-07
4.245175635e-06
6.226597205e-07
5.190588227e-06
8.379628493e-07
6.089469675e-06
1.072041869e-06
6.934858089e-06
7.720678465e-06
1.317665204e-06
4.099593094e-07
4.123227849e-06
5.91911293e-07
5.045853183e-06
7.980558343e-07
5.925933716e-06
1.022321007e-06
6.757007831e-06
7.533493527e-06
1.25897822e-06
3.783064508e-07
4.00454045e-06
5.470695996e-07
4.904521606e-06
7.386164949e-07
5.765702935e-06
9.479525615e-07
6.58211887e-06
7.348589571e-06
1.169509468e-06
3.441513637e-07
3.89187441e-06
4.980729827e-07
4.770026458e-06
6.733978299e-07
5.612758755e-06
8.654961332e-07
6.414558824e-06
7.170625327e-06
1.069815121e-06
3.12446894e-07
3.785849126e-06
4.525918777e-07
4.643199286e-06
6.124428882e-07
5.468126459e-06
7.884527812e-07
6.255543289e-06
7.000969783e-06
9.761576059e-07
2.856171091e-07
3.685992272e-06
4.139953998e-07
4.523545544e-06
5.607663289e-07
5.331344492e-06
7.227982795e-07
6.104676143e-06
6.839355034e-06
8.963828745e-07
2.636949938e-07
3.591646791e-06
3.82395117e-07
4.410317317e-06
5.184597651e-07
5.201626771e-06
6.689446525e-07
5.961193873e-06
6.685100563e-06
8.30846298e-07
2.46018438e-07
3.502139589e-06
3.569075639e-07
4.302746654e-06
4.842486532e-07
5.07814697e-06
6.254714764e-07
5.824259238e-06
6.537410188e-06
7.778180127e-07
2.312274021e-07
3.417027903e-06
3.35633034e-07
4.200331541e-06
4.556382605e-07
4.960374829e-06
5.891739689e-07
5.693356367e-06
6.395824643e-06
7.335004307e-07
2.186696595e-07
3.335933313e-06
3.175615789e-07
4.102613342e-06
4.31487449e-07
4.847806979e-06
5.584066607e-07
5.567962614e-06
6.259839961e-06
6.960888101e-07
2.076635758e-07
3.258557949e-06
3.01727662e-07
4.00927078e-06
4.102822855e-07
4.740110685e-06
5.314665673e-07
5.447754791e-06
6.129160928e-06
6.631991415e-07
1.977537729e-07
3.184675758e-06
2.874773935e-07
3.920027765e-06
3.912087081e-07
4.636975438e-06
5.072780831e-07
5.332409692e-06
6.003470975e-06
6.336805796e-07
1.888170515e-07
3.114017661e-06
2.746740762e-07
3.834574816e-06
3.740882779e-07
4.538066965e-06
4.854763064e-07
5.22158437e-06
5.882437297e-06
6.071288928e-07
1.805562399e-07
3.046388873e-06
2.627961364e-07
3.752705409e-06
3.581801757e-07
4.443171584e-06
4.651677574e-07
5.115064886e-06
5.765861426e-06
5.823710149e-07
1.729750717e-07
2.98156709e-06
2.51895575e-07
3.674145573e-06
3.4356572e-07
4.351988022e-06
4.465641022e-07
5.012543223e-06
5.653440879e-06
5.595942888e-07
1.659778446e-07
2.91934628e-06
2.418307896e-07
3.59865672e-06
3.300644951e-07
4.264249871e-06
4.293585909e-07
4.913736201e-06
5.54488992e-06
5.385410768e-07
1.594168673e-07
2.859560658e-06
2.324007253e-07
3.526051941e-06
3.173798175e-07
4.179758995e-06
4.132053495e-07
4.818442209e-06
5.440011174e-06
5.186956219e-07
1.533806278e-07
2.802023183e-06
2.237278817e-07
3.456117353e-06
3.056573674e-07
4.098281316e-06
3.982655855e-07
4.726419438e-06
5.338565963e-06
5.003053181e-07
1.47664556e-07
2.746611026e-06
2.154607161e-07
3.388704961e-06
2.945793981e-07
4.019656542e-06
3.840412763e-07
4.637500071e-06
5.240390548e-06
4.828459116e-07
1.421934613e-07
2.693223804e-06
2.075909325e-07
3.323700059e-06
2.839723659e-07
3.943757285e-06
3.704435564e-07
4.551553615e-06
5.14535612e-06
4.661083994e-07
1.369606875e-07
2.641767026e-06
2.000391898e-07
3.260993891e-06
2.738077756e-07
3.870469762e-06
3.57384215e-07
4.468465766e-06
5.053354895e-06
4.500017794e-07
1.320548221e-07
2.592121543e-06
1.929468648e-07
3.200449832e-06
2.642015653e-07
3.79964326e-06
3.450660214e-07
4.388079806e-06
4.964229742e-06
4.347483555e-07
1.274277663e-07
2.54416558e-06
1.86268564e-07
3.14192133e-06
2.55182682e-07
3.73111461e-06
3.334669956e-07
4.310220445e-06
4.877799471e-06
4.203950765e-07
1.229862525e-07
2.497831681e-06
1.798353372e-07
3.085334029e-06
2.464775571e-07
3.664804546e-06
3.222443587e-07
4.23480825e-06
4.793991043e-06
4.064779803e-07
1.188733246e-07
2.452978076e-06
1.739211605e-07
3.030513961e-06
2.38456336e-07
3.600513495e-06
3.119383326e-07
4.161624039e-06
4.712567744e-06
3.936911354e-07
1.147488049e-07
2.409623862e-06
1.679331676e-07
2.977495257e-06
2.303415498e-07
3.538290688e-06
3.014394264e-07
4.090734034e-06
4.633620242e-06
3.806295018e-07
1.11162114e-07
2.367560024e-06
1.627505776e-07
2.926017789e-06
2.233208849e-07
3.477831616e-06
2.924114469e-07
4.021794262e-06
4.556765399e-06
3.694069651e-07
1.072070705e-07
2.326950577e-06
1.569864231e-07
2.876295714e-06
2.154884923e-07
3.419397728e-06
2.822514801e-07
3.955114858e-06
4.48236874e-06
3.567277434e-07
1.041855377e-07
2.287442529e-06
1.52618953e-07
2.827891645e-06
2.09583316e-07
3.362473944e-06
2.746336579e-07
3.890106899e-06
4.409768716e-06
3.472707537e-07
1.00180058e-07
2.249437308e-06
1.467929467e-07
2.781310342e-06
2.016324971e-07
3.307663818e-06
2.642882576e-07
3.827473426e-06
4.339771305e-06
3.343260567e-07
9.797275216e-08
2.212264066e-06
1.435960012e-07
2.735723498e-06
1.9732272e-07
3.253988047e-06
2.587377696e-07
3.76608825e-06
4.271107974e-06
3.274660632e-07
9.327380325e-08
2.176882541e-06
1.367441453e-07
2.692316251e-06
1.879495347e-07
3.202854201e-06
2.465405807e-07
3.707577814e-06
4.205618465e-06
3.121214905e-07
9.283827302e-08
2.141691896e-06
1.361172389e-07