/*--------------------------------*- C++ -*----------------------------------*\
  =========                 |
  \\      /  F ield         | OpenFOAM: The Open Source CFD Toolbox
   \\    /   O peration     | Website:  https://openfoam.org
    \\  /    A nd           | Version:  10
     \\/     M anipulation  |
\*---------------------------------------------------------------------------*/
FoamFile
{
    format      ascii;
    class       volVectorField;
    location    "0.02499901733";
    object      U;
}
// * * * * * * * * * * * * * * * * * * * * * * * * * * * * * * * * * * * * * //

dimensions      [0 1 -1 0 0 0 0];

internalField   nonuniform List<vector> 
5170
(
(-0.007004070123 5.852213266e-15 49.63707793)
(-0.02282212987 1.627698335e-14 49.65921891)
(-0.03625716586 2.169419902e-15 49.65635808)
(-0.09586021266 -1.298387713e-13 49.62036842)
(0.01091014752 -8.216064013e-15 48.76268599)
(-0.01695694133 1.917917412e-12 50.11171295)
(-0.04270361815 6.449026258e-12 50.13319574)
(-0.0513486719 8.507338042e-12 50.13747345)
(-0.1141900308 1.644476911e-12 50.07496342)
(-0.0413570839 7.867237552e-14 48.6532502)
(-0.01822460442 1.295171025e-13 50.66198342)
(-0.04946608227 -5.943516406e-12 50.67998508)
(-0.06258168318 -9.662306578e-12 50.6815995)
(-0.1135977219 -4.027916575e-13 50.55079661)
(-0.07414449216 4.75969228e-14 48.11436679)
(-0.01613038764 -5.159102285e-12 50.99971163)
(-0.05261971608 -1.113040254e-11 51.00702195)
(-0.07063207009 -6.803690059e-12 50.98168379)
(-0.1038171736 -8.478961667e-13 50.69751767)
(-0.08379321261 -3.204218971e-15 47.49581477)
(-0.02020943453 -7.084472482e-13 51.44687195)
(-0.05450277442 -7.984965567e-13 51.45006688)
(-0.08054598959 -9.709558986e-12 51.4019252)
(-0.09761862455 -1.380228649e-12 50.89759219)
(-0.08990412179 -7.131618709e-14 46.94870831)
(-0.01928500365 -4.141253822e-12 51.95898182)
(-0.05487802804 -1.546993491e-11 51.94642042)
(-0.08534165632 -2.599635326e-12 51.84232308)
(-0.09097812554 2.040757802e-12 51.06475122)
(-0.09081874439 9.307083076e-14 46.42642737)
(-0.01891599252 -7.841182268e-12 52.41731384)
(-0.05331860283 -1.657372449e-11 52.39700765)
(-0.08687550544 -1.18879759e-11 52.24087673)
(-0.08619115509 1.971937665e-12 51.20067488)
(-0.08913500983 2.256007853e-13 45.92082715)
(-0.01950820978 -4.66385565e-12 52.9182005)
(-0.05348917247 -1.058623778e-11 52.88052439)
(-0.08458634904 -1.287269047e-12 52.6865174)
(-0.07794960497 2.825274423e-12 51.31330922)
(-0.08642264115 3.516619825e-13 45.44585122)
(-0.01919455088 -7.442188537e-12 53.37599035)
(-0.05032208322 -1.105339993e-11 53.31539494)
(-0.08430867735 -1.285395008e-11 53.00257339)
(-0.0733429552 1.729550701e-12 51.41778617)
(-0.08245718112 -4.338966478e-12 45.00216341)
(-0.01714587496 9.525047787e-13 53.83271923)
(-0.04354199808 -7.538365254e-12 53.7619059)
(-0.08459258099 -9.089508612e-12 53.41932843)
(-0.0785428097 1.139837939e-12 51.481109)
(-0.0748423379 -7.182060898e-12 44.57227793)
(-0.01865201692 -1.289023818e-11 54.21562858)
(-0.04337796685 -3.116753721e-11 54.15187531)
(-0.0800851762 -1.080686561e-11 53.88236874)
(-0.06906025881 -1.04586408e-12 51.50065919)
(-0.06702416533 -7.188565879e-12 44.17426511)
(-0.01802638459 5.886550862e-13 54.67685058)
(-0.04699734718 2.409681003e-12 54.58009315)
(-0.07563264608 -1.46216712e-11 54.15644278)
(-0.05555558585 -8.376139435e-13 51.53488444)
(-0.05914311794 -1.066824787e-11 43.83419402)
(-0.01891286335 -1.266705541e-11 55.08486779)
(-0.0452540391 -3.623323393e-11 54.97427567)
(-0.07406158365 -1.683652191e-11 54.40041458)
(-0.04987629007 -3.567653798e-12 51.54890508)
(-0.05168924258 -1.357222424e-11 43.54036535)
(-0.0166135851 -2.611268288e-12 55.53456881)
(-0.04321622534 -8.116948849e-12 55.38516785)
(-0.07089128983 -1.51720914e-11 54.63998414)
(-0.04796443953 -4.297182512e-12 51.54144964)
(-0.04447028882 -1.212182803e-11 43.27442744)
(-0.01814625299 -1.500272256e-11 55.89651975)
(-0.03937182812 -3.708591879e-11 55.73466314)
(-0.06821541288 -1.575654223e-11 54.88321639)
(-0.04485017166 -5.73309781e-12 51.51720844)
(-0.03721133798 -1.621312734e-11 43.03333699)
(-0.01519446199 6.432987454e-13 56.31769708)
(-0.03978315397 -1.625975845e-11 56.1059645)
(-0.06491055622 -1.659528669e-11 55.10763509)
(-0.04208503133 -7.034473739e-12 51.45839019)
(-0.03025868204 -1.155557487e-11 42.83292089)
(-0.01824251127 -2.653035303e-11 56.64598933)
(-0.03430650879 -9.088398749e-12 56.42418375)
(-0.06084705736 -1.474998619e-11 55.33423709)
(-0.03770130164 -7.261823014e-12 51.38266567)
(-0.02334939786 -6.510337559e-12 42.64906288)
(-0.01116695206 4.455947207e-11 57.05125008)
(-0.04417501193 -2.258585465e-11 56.75869874)
(-0.06049390624 -1.609393272e-11 55.50374212)
(-0.03354231773 -7.743885852e-12 51.31722031)
(-0.02508066814 -3.131916968e-12 42.5177043)
(-0.02361343043 -2.834638109e-11 57.38561587)
(-0.02823440017 -2.439151117e-11 57.13006678)
(-0.09530019943 -1.523250598e-11 55.75763486)
(-0.0762788647 -7.539566789e-12 51.2086177)
(-0.02840636817 -2.943170706e-12 42.30618029)
(-0.120187218 -1.614492138e-11 58.13089965)
(-0.3082889591 -2.388543008e-11 57.82516322)
(-0.3806383939 -1.723666595e-11 56.42264922)
(-0.4394739659 -7.187923027e-12 51.24576131)
(-0.139910776 -2.824407362e-12 42.08831581)
(-0.06460959481 3.092328712e-12 9.537466677)
(0.2188965905 3.077071169e-11 11.84178029)
(-0.1309455923 3.938865556e-13 11.53596108)
(-0.6700211118 -1.411427173e-11 11.72582434)
(0.106487122 2.027197854e-12 9.012185127)
(0.08991971707 -5.92393322e-11 10.03641621)
(0.03815926316 -5.836777733e-11 13.61720527)
(-0.1282586225 -1.829484483e-11 13.19569053)
(-0.3586817026 -6.996027806e-11 13.22249148)
(-0.09390074606 -6.792705118e-12 8.776101844)
(0.1042638482 -1.527557006e-11 9.672269739)
(0.03453256434 5.895704425e-11 14.14890592)
(-0.09140780783 -1.825175805e-11 14.10427425)
(-0.2519057375 -2.868263531e-11 13.30394596)
(-0.08357966168 -1.440293309e-11 8.017938922)
(0.07628713421 -6.305157108e-11 9.256807709)
(0.0409701293 3.634671472e-11 14.44644709)
(-0.05259796555 -1.8041524e-12 14.71173172)
(-0.1876837906 -6.134667213e-11 13.40098885)
(-0.05805474847 1.223677142e-11 7.222288788)
(0.05170161877 -1.973991651e-10 9.068462007)
(0.03989365592 7.034272727e-12 14.69597233)
(-0.02812248542 -2.865505708e-11 15.31905044)
(-0.1303156894 -1.476991122e-10 13.53450557)
(-0.01684129849 -6.055798522e-11 6.901320867)
(0.04139212693 -9.465499737e-11 8.81029238)
(0.03686122358 -7.487893495e-12 14.84987897)
(-0.01673660799 -2.973011978e-11 15.60537988)
(-0.08910894598 -7.444535325e-11 13.54988017)
(-0.00293204704 5.0202636e-11 6.604175119)
(0.03022968332 -1.152261161e-10 8.633167707)
(0.03484504836 -1.470782131e-11 14.95435128)
(-0.00682323696 -3.730059947e-11 15.93257059)
(-0.05892327802 -8.986085731e-11 13.56256169)
(0.01003451634 1.336326755e-11 6.481092284)
(0.0226536257 -2.803027918e-10 8.47523642)
(0.01940583567 -4.27296457e-11 15.02605991)
(-0.002644497699 -5.341799979e-11 16.07624534)
(-0.03133663885 -1.518507768e-10 13.53654787)
(0.01526864156 -2.727173878e-11 6.408962659)
(0.01481032112 -1.142540904e-10 8.397774349)
(0.01098531164 -7.273993151e-11 15.08215039)
(-0.002988358042 -6.344310683e-11 16.16023232)
(-0.01363884712 -1.217214093e-10 13.51461188)
(0.01511809614 -5.104412316e-11 6.413245421)
(0.00976546362 -1.936938846e-10 8.341819593)
(0.004909897696 -1.930226762e-10 15.12252562)
(-0.00364558898 -8.123765457e-11 16.20669712)
(-0.005999731549 -1.192766753e-10 13.47059396)
(0.01332070773 3.637760012e-11 6.423218236)
(0.005338887729 -3.057516774e-10 8.317664438)
(0.0003171800624 -1.712698394e-10 15.15383428)
(-0.00378612241 -9.978578589e-11 16.22941472)
(-0.002198878927 -1.730106156e-10 13.43647903)
(0.01223790474 -4.676967987e-12 6.45159933)
(0.002761744862 -1.959163169e-10 8.30942378)
(-0.00185344806 -2.102762018e-10 15.17726285)
(-0.002962962767 -1.10888354e-10 16.23270146)
(0.001702470661 -1.238131279e-10 13.38980197)
(0.01056139275 -6.328584658e-11 6.47394531)
(0.001559276605 -2.51957019e-10 8.312897086)
(-0.003824794521 -2.814893708e-10 15.1949198)
(-0.002610631506 -1.286848532e-10 16.22404229)
(0.002741643178 -1.487502499e-10 13.36600308)
(0.009353319982 2.365705418e-11 6.513259224)
(-0.0009068110133 -2.783921974e-10 8.321929192)
(-0.009057608408 -2.45076236e-10 15.20356634)
(0.004004846778 -1.421742489e-10 16.20385679)
(0.009985312573 -1.705735846e-10 13.32764115)
(0.004509864749 -1.950980478e-11 6.531302823)
(-0.01623293866 -3.432712035e-10 8.353147377)
(-0.003623154324 -2.992396504e-10 15.2217741)
(0.02425196492 -1.575740453e-10 16.18659376)
(0.01494685632 -1.774988788e-10 13.30758039)
(0.004008342104 -4.378258392e-11 6.579123847)
(-0.01904045724 -3.49637942e-10 8.373993686)
(-0.003599745519 -2.814346781e-10 15.22492826)
(0.004677172165 -1.715852214e-10 16.1413323)
(-0.02915130963 -2.046717428e-10 13.25152406)
(-0.01222893694 -5.908758255e-11 6.592260877)
(-0.01773331113 -3.961248986e-10 8.478008735)
(-0.03451659726 -2.81520247e-10 15.28004161)
(-0.0277061077 -1.922991345e-10 16.13367181)
(0.004322685558 -2.228242229e-10 13.25472122)
(0.02477854277 -7.20786976e-11 6.64020443)
(-0.07507898341 -2.756886572e-10 8.642427723)
(-0.1135774086 -2.767481167e-10 15.25404346)
(-0.06687563136 -2.493257411e-10 16.02016507)
(-0.03137060462 -2.121775926e-10 13.11993906)
(-0.007129912125 -7.750537443e-11 6.498332763)
(-0.2260163346 -2.144156495e-10 9.636397376)
(-0.2531878464 -2.111342055e-10 15.47307675)
(-0.178398244 -2.316553766e-10 15.99852801)
(-0.1075400511 -1.916282227e-10 13.08334969)
(-0.02065209915 -1.059543666e-10 6.564623157)
(-1.959520965 -2.240359822e-10 10.95298851)
(-1.96196552 -2.33225009e-10 14.70114148)
(-1.317224006 -2.313812008e-10 14.97118939)
(-0.2688257697 -1.817993177e-10 11.99142591)
(-0.4100197135 -9.066615584e-11 5.385617558)
(0.004518479509 -1.207155271e-11 60.31475265)
(0.00538241124 -2.089121088e-11 59.78818157)
(0.07060882615 -1.796414436e-11 57.61102863)
(0.001176829368 -7.643546993e-12 52.29241412)
(1.083312898 -9.410941231e-12 43.1863446)
(0.001211911363 -1.072671238e-11 60.27973507)
(0.005115438349 -1.895884895e-11 59.71577563)
(0.0631056337 -1.757358977e-11 57.49463487)
(0.03793773051 -8.962775167e-12 52.1214)
(0.9046137121 -1.822114902e-11 43.44554537)
(0.005491758763 -8.720719109e-12 60.21815848)
(-0.002428658737 -1.753301586e-11 59.59030949)
(0.09904762824 -1.951541595e-11 57.23770399)
(0.1896974247 -7.269734999e-12 51.93945047)
(1.002505575 -1.981010903e-11 43.8780329)
(0.00976177647 -1.124296837e-11 60.14795064)
(0.001985111485 -2.064114125e-11 59.44217159)
(0.1065241372 -2.140197033e-11 56.92533298)
(0.3257306204 -1.477097691e-11 51.64994894)
(1.071393465 -2.851255397e-11 44.30920544)
(0.01613434898 -1.817986291e-12 60.05198981)
(0.009869524165 -9.633784545e-12 59.26091946)
(0.1461253853 -2.00864536e-11 56.59987298)
(0.4664255828 -1.066199144e-11 51.33424792)
(1.1270439 -2.231825755e-11 44.76547769)
(0.01474744464 -1.605097016e-11 59.93286813)
(0.02737179746 -3.54524916e-11 59.04101266)
(0.2013522839 -1.471253687e-11 56.19772237)
(0.6236805729 -2.098395167e-11 51.03569067)
(1.160018989 -3.422587169e-11 45.155241)
(0.01621912748 -3.099499761e-12 59.76840259)
(0.05126036687 -5.815084112e-13 58.76951146)
(0.2771132491 -7.499833242e-12 55.7166597)
(0.7399729936 -1.208347031e-11 50.74662914)
(1.185829618 -2.852912443e-11 45.40873383)
(0.02201196127 -1.422432078e-11 59.60244393)
(0.08331314559 -3.195271004e-11 58.45185706)
(0.3740002947 -2.77728075e-11 55.24930735)
(0.8347388466 -2.864184392e-11 50.52185528)
(1.21117135 -3.853311057e-11 45.61174223)
(0.03527110577 6.665473397e-13 59.41747913)
(0.1371739239 1.050272958e-11 58.06302977)
(0.4818551421 -5.933233945e-12 54.74189189)
(0.9208849967 -1.283479835e-11 50.31655078)
(1.244035809 -2.277292887e-11 45.76571442)
(0.04979694565 -1.062572635e-11 59.10054395)
(0.2039058603 -4.253263049e-11 57.59278282)
(0.5880494689 -2.903715656e-11 54.2144958)
(0.9847675335 -3.151661395e-11 50.0941196)
(1.266406858 -4.728132782e-11 45.85932727)
(0.08562428373 -7.312457888e-12 58.83364328)
(0.3053263358 -2.067637285e-11 57.10745198)
(0.7038752203 -5.15135922e-12 53.72011942)
(1.054931517 -1.703621646e-11 49.88228221)
(1.305870301 -3.201107081e-11 45.9285731)
(0.1353480287 -9.759733296e-12 58.25974066)
(0.4144503697 -2.819206205e-11 56.39431858)
(0.7958465858 -4.454497599e-11 53.16362559)
(1.10339007 -3.318584043e-11 49.6004876)
(1.323853779 -3.207937139e-11 45.92050857)
(0.192829331 -6.081183278e-12 57.63602559)
(0.5220054806 -1.449517669e-11 55.74340916)
(0.871876677 -8.214810591e-12 52.6926441)
(1.14953963 -2.20457434e-11 49.34718134)
(1.348432202 -2.936592478e-11 45.88215017)
(0.2557237154 -5.661863607e-12 56.6823975)
(0.6178540166 -1.522536044e-11 54.90100259)
(0.944281996 -2.004005221e-11 52.07698586)
(1.198519089 -2.301802381e-11 48.96827623)
(1.382060124 -2.710531866e-11 45.7469745)
(0.2290142457 -2.786521099e-12 55.45539758)
(0.6975242592 -4.161187324e-12 53.96659337)
(0.9790658514 -4.450422452e-13 51.4471143)
(1.223935568 -1.699188806e-11 48.5767237)
(1.402652523 -2.42282911e-11 45.54435929)
(0.2951810903 -1.905364147e-12 54.17378453)
(0.7149709558 -4.314066951e-12 52.91685883)
(1.018660518 -3.682579822e-12 50.66683012)
(1.269230134 -9.786025418e-13 48.01266643)
(1.457047206 -1.558844854e-11 45.16913458)
(0.2282455394 1.28138612e-12 52.59321604)
(0.7495437022 3.202818038e-12 51.58392346)
(1.040617176 9.734446001e-12 49.63035172)
(1.300996669 -3.04007661e-12 47.22525398)
(1.4978307 -1.411590839e-11 44.58805679)
(0.2541727999 -1.245685546e-13 50.87534068)
(0.6625074487 1.477523234e-12 50.05745695)
(0.955535845 9.135042391e-12 48.40174983)
(1.198737742 4.621770751e-13 46.26759019)
(1.383694813 -7.177794879e-12 43.85814551)
(0.2086619865 1.187298619e-11 49.39576979)
(0.6129412528 2.029780223e-11 48.69955067)
(0.8967347325 1.324835181e-11 47.29817602)
(1.134563009 6.923788682e-13 45.42484467)
(1.303100726 -1.234116448e-11 43.23119645)
(0.2252245323 -2.7596413e-12 48.14157253)
(0.5795459907 -1.194024551e-11 47.48921477)
(0.854071953 -5.107036823e-12 46.16096545)
(1.056653639 -6.914328063e-12 44.3525664)
(1.166630956 -1.021058178e-11 42.21044432)
(0.1705271918 -2.694275036e-12 45.6918106)
(0.5941141866 -5.452076927e-12 45.17692826)
(0.823454684 -6.567801306e-12 43.97902791)
(1.000983991 -7.060974909e-12 42.25729161)
(1.075522689 -7.317746629e-12 40.165338)
(0.1962086375 3.200201379e-12 41.19122478)
(0.4990336208 8.731352555e-12 40.94132314)
(0.7173471556 1.180037866e-12 40.07481333)
(0.8668232843 -2.606889753e-12 38.69916303)
(0.9314121764 -4.620719005e-12 36.92843808)
(0.1358940424 1.994763049e-12 36.17912856)
(0.3475649262 5.769393008e-12 36.06359381)
(0.5126745863 9.904738688e-12 35.45671097)
(0.6380398003 2.927729206e-12 34.42299607)
(0.7089006086 -1.145986265e-12 33.03481927)
(0.09154485854 2.248727387e-12 31.27508224)
(0.2367085099 6.720712954e-12 31.23301455)
(0.3577363727 1.209777813e-11 30.81192496)
(0.4589202182 7.260272503e-12 30.05789315)
(0.527909481 4.777983358e-12 29.02854112)
(0.05942300939 4.572029437e-12 26.99867139)
(0.1551880332 1.358827976e-11 26.98628169)
(0.2391856925 9.545980115e-12 26.70323601)
(0.3134759395 7.736055597e-12 26.18191779)
(0.3704087079 6.885628596e-12 25.45732327)
(0.03937533089 1.059060241e-12 23.58949242)
(0.1036036965 2.880112952e-12 23.5832468)
(0.162721304 3.815035366e-12 23.38213984)
(0.2185871098 4.406638634e-12 23.00615937)
(0.2658844622 4.923729151e-12 22.47836031)
(0.02883691172 -2.041543885e-12 20.95634943)
(0.07604703056 -5.643151912e-12 20.94781525)
(0.1208539112 -9.696803906e-15 20.79523961)
(0.1649082109 3.780311456e-12 20.51361717)
(0.2045811866 6.633192583e-12 20.11851988)
(0.0189089766 5.566389127e-12 18.89517893)
(0.06171276024 1.555568408e-12 18.88298648)
(0.09502913518 2.024925536e-12 18.76248149)
(0.1306160076 2.961875549e-12 18.54433778)
(0.1641418153 3.936115266e-12 18.23926186)
(0.01912402614 3.858127898e-12 17.24529974)
(0.05110854111 1.173232827e-11 17.2317623)
(0.0816026699 1.115081549e-11 17.13417001)
(0.1126786126 6.347869496e-12 16.96086538)
(0.1425045293 3.242932177e-12 16.71941502)
(0.01506649806 2.000573099e-12 15.89076959)
(0.04767778649 4.12088125e-12 15.87658195)
(0.07586084757 7.025114031e-12 15.79639558)
(0.1049872024 9.316171865e-12 15.65624317)
(0.1330327884 8.452405069e-12 15.46161046)
(0.01651532774 2.942165062e-12 14.73986635)
(0.04610096342 6.357250357e-12 14.72726624)
(0.07343342211 6.018882147e-12 14.66140033)
(0.1015197013 5.067776056e-12 14.54716329)
(0.1286855379 4.172550854e-12 14.388467)
(0.01426774565 3.86919746e-12 13.74501005)
(0.04611795928 9.133102124e-12 13.73373813)
(0.07078847864 5.808475348e-12 13.67920001)
(0.09789152381 4.828978064e-12 13.58511752)
(0.1244098177 4.529418701e-12 13.45446865)
(0.01591669912 8.506061195e-13 12.88083555)
(0.04187452346 2.457131159e-12 12.87054701)
(0.06661466567 3.91089969e-12 12.82476693)
(0.09219656441 5.412079311e-12 12.74634884)
(0.1172155468 6.805595614e-12 12.63755288)
(0.01229774909 5.266665444e-12 12.13653156)
(0.03956245123 4.449606298e-12 12.12627073)
(0.06064189692 6.31255235e-12 12.08676979)
(0.08394077288 8.538204148e-12 12.02018435)
(0.1068964252 1.06839942e-11 11.92818698)
(0.01295780084 -3.91272277e-13 11.49990283)
(0.03395757999 -1.225800648e-12 11.48977907)
(0.05400971592 -2.207351999e-12 11.45505042)
(0.07486630789 -3.452201925e-12 11.39743274)
(0.09532703159 -5.102121182e-12 11.31823152)
(0.008715828689 1.547205123e-12 10.95623729)
(0.03111720365 1.543859152e-12 10.94556753)
(0.04776308556 2.541013102e-12 10.91427461)
(0.06608227505 3.98555367e-12 10.86349859)
(0.08426780434 5.832197374e-12 10.7941721)
(0.01009627027 -1.745425109e-12 10.4869159)
(0.02657594612 7.067847583e-12 10.47664499)
(0.04225049891 6.019680725e-12 10.44831502)
(0.05854908103 6.166256885e-12 10.40302633)
(0.07463871529 6.789302877e-12 10.34155554)
(0.006475326568 5.303421124e-13 10.07642537)
(0.02459763342 1.170888931e-12 10.06632505)
(0.03789684357 2.051998971e-12 10.04047318)
(0.05230633319 2.990918418e-12 9.999703356)
(0.06658983399 3.985547344e-12 9.944599183)
(0.008210606699 2.279936707e-12 9.710434402)
(0.0215441189 6.46395271e-12 9.700867811)
(0.03423291979 1.039393442e-11 9.677219485)
(0.04731406803 1.088991605e-11 9.640291773)
(0.06019184352 1.168449302e-11 9.590625012)
(0.005328825703 4.017344442e-13 9.378635712)
(0.02015514927 1.002866439e-12 9.369627537)
(0.03136530607 2.081023976e-12 9.347998056)
(0.04340129502 -3.432893513e-12 9.314470651)
(0.05530882479 -4.900754371e-12 9.269448937)
(0.006997564072 1.498567363e-12 9.073504987)
(0.01827461889 4.758844352e-12 9.06509536)
(0.02893276152 2.578829635e-12 9.045325644)
(0.04004187736 1.475195067e-12 9.014842431)
(0.05105050662 1.002907387e-12 8.973950348)
(0.004602765345 2.724807929e-12 8.790352054)
(0.01760071366 5.668648469e-12 8.782559045)
(0.02701590887 1.053610064e-11 8.764472522)
(0.03725077351 1.032296821e-11 8.736703867)
(0.04747714706 1.398372764e-11 8.699496021)
(0.006059603305 1.188904025e-12 8.525391453)
(0.01584484157 3.352152973e-12 8.518208199)
(0.02512201232 5.440650349e-12 8.501688687)
(0.0347905655 7.30482631e-12 8.476372733)
(0.04437232108 8.900966403e-12 8.442457149)
(0.003953020992 9.233480997e-13 8.276647291)
(0.0150602143 1.752240665e-12 8.270043926)
(0.023522547 2.369824004e-12 8.254951424)
(0.03257761147 -1.776374147e-12 8.231833489)
(0.04159332305 -1.829847107e-12 8.200855868)
(0.005327572483 -5.531298569e-12 8.041961611)
(0.01393800916 -2.792311079e-12 8.035943572)
(0.02210810071 -1.729550898e-12 8.022159812)
(0.03062196276 -1.203808654e-12 8.00103852)
(0.03905182171 -7.922060093e-13 7.972725714)
(0.00356160592 -1.687341606e-14 7.820178853)
(0.0135676406 3.205248375e-14 7.814735229)
(0.02083821439 1.306334946e-13 7.802154917)
(0.02880092547 2.513657197e-13 7.782825968)
(0.0367850319 2.88856919e-13 7.756896613)
(0.004731291527 -3.427729349e-13 7.610174669)
(0.01236936046 -9.357167741e-13 7.60522279)
(0.01961503899 -1.734752921e-12 7.593711904)
(0.02718055629 -6.856334624e-12 7.575991179)
(0.03469104778 -7.173115524e-12 7.552183576)
(0.003178793397 -2.714681846e-13 7.410536397)
(0.0120945496 -5.553645825e-13 7.406206824)
(0.01855093803 -9.190566638e-13 7.395735235)
(0.02566623621 -1.204477082e-12 7.379500227)
(0.03278773851 -1.284318755e-12 7.357643749)
(0.004225757162 1.678099455e-12 7.221130527)
(0.01104530929 4.389886827e-12 7.217124882)
(0.01751977597 2.661662388e-12 7.207507649)
(0.02428766721 1.388704433e-12 7.192586844)
(0.03102417729 4.646056704e-13 7.172480472)
(0.003372685236 -3.261391578e-12 7.040601826)
(0.01084142396 -5.152302386e-12 7.037033059)
(0.01660008981 -7.254624052e-12 7.02824893)
(0.02301168145 -5.578247757e-12 7.014535703)
(0.02941536837 -4.314551605e-12 6.996016835)
(0.003787389857 -1.771157865e-13 6.868215183)
(0.009933324455 -3.889312548e-13 6.865069279)
(0.01575052411 -4.823921957e-13 6.857050289)
(0.02183818589 -4.604064381e-13 6.844441373)
(0.02790639147 -4.681328452e-13 6.827369651)
(0.003031913194 5.456029842e-12 6.703899936)
(0.009752241375 2.602636675e-12 6.701122095)
(0.01493917111 -4.305815245e-12 6.693792546)
(0.02071336631 -9.407073233e-12 6.682181408)
(0.0264853327 -9.658804016e-12 6.66642105)
(0.0033948727 2.03635421e-12 6.546683548)
(0.00896217983 5.687627619e-12 6.544263478)
(0.01418433685 1.743997358e-12 6.537570682)
(0.01967638941 -5.307860146e-13 6.526873534)
(0.02514428174 -1.960472391e-12 6.512309627)
(0.002735122012 -7.175898533e-13 6.396660402)
(0.008797371011 -1.6114725e-12 6.394548951)
(0.01347579061 -3.34150577e-12 6.388431253)
(0.01869099506 3.933649918e-13 6.378565285)
(0.02391225984 2.845918437e-12 6.365091902)
(0.003058711255 1.1660993e-12 6.252651097)
(0.008102363426 3.223315239e-12 6.250833928)
(0.01282511101 5.366907105e-12 6.245247405)
(0.01779342612 7.549894435e-12 6.236146387)
(0.02275083563 9.715735459e-12 6.223676498)
(0.002477079047 -7.229392481e-12 6.114981712)
(0.007963099943 -4.310643659e-12 6.113407289)
(0.01219880288 -6.524303283e-12 6.108297686)
(0.01692595954 -5.489408648e-12 6.099893975)
(0.02165716161 -5.707290328e-12 6.088343506)
(0.002759159304 2.110352678e-12 5.982552541)
(0.007352129376 5.967094847e-12 5.981200682)
(0.01163303396 2.650850191e-12 5.976527327)
(0.01614550419 9.838786867e-13 5.968766929)
(0.0206419417 -9.60111163e-14 5.958065207)
(0.002244201342 2.374688739e-12 5.85562158)
(0.007222681072 5.592980305e-12 5.854443603)
(0.01107094321 3.106447124e-12 5.850159095)
(0.01536589656 2.047343641e-12 5.842985929)
(0.01965818622 1.341454007e-12 5.833065338)
(0.002519588916 6.144511244e-14 5.733578512)
(0.006681242193 5.289556955e-13 5.732555337)
(0.01058196238 2.954623094e-12 5.728625406)
(0.01469126505 5.25107854e-12 5.721994374)
(0.01878749431 7.480521532e-12 5.712797271)
(0.002041953272 2.059185953e-12 5.615947747)
(0.006565910566 4.278901452e-12 5.615040464)
(0.01006315225 6.260443398e-12 5.611426213)
(0.01397147786 7.02928698e-12 5.605290558)
(0.01787928023 6.646838429e-12 5.596759411)
(0.002315297809 -6.18348952e-13 5.503563148)
(0.006080340026 -1.754259279e-12 5.502765693)
(0.009653505791 -2.948909379e-12 5.499440212)
(0.01340528969 -4.279850787e-12 5.493761042)
(0.01714464166 -5.764054043e-12 5.485843743)
(0.001857157648 3.661864727e-12 5.39382173)
(0.005971232791 8.236994341e-12 5.393112637)
(0.009156008519 8.031968283e-12 5.390049173)
(0.0127152951 9.53934159e-12 5.384788773)
(0.01627377945 1.130798059e-11 5.377437563)
(0.002128053365 -5.189576749e-14 5.29091828)
(0.005564644256 -1.806515392e-13 5.29030672)
(0.008840544722 -4.551183553e-13 5.287487111)
(0.01227859242 -8.409285475e-13 5.282609236)
(0.01570990639 -1.657101931e-12 5.275771997)
(0.001684151589 1.10705819e-12 5.187291259)
(0.005416206834 2.29744065e-12 5.186765361)
(0.008303066344 4.238816427e-12 5.184170159)
(0.01153273135 6.476315836e-12 5.179646299)
(0.0147637944 5.110720154e-12 5.173286497)
(0.001965787055 1.752627699e-13 5.095050943)
(0.005140337829 4.977276313e-13 5.094629236)
(0.008163508573 8.265675769e-13 5.092244312)
(0.01133823344 1.152143356e-12 5.088036146)
(0.01451519408 2.117927569e-12 5.08209571)
(0.001530605921 1.210337667e-12 4.993861318)
(0.004922565764 2.528743451e-12 4.99353628)
(0.007548116377 4.617178749e-12 4.991357215)
(0.01048409271 6.689579416e-12 4.987461287)
(0.01342865074 8.805255134e-12 4.981938981)
(0.001861339389 1.26223817e-12 4.914403155)
(0.004865971628 4.635346537e-12 4.914192671)
(0.007729416866 9.629634506e-15 4.912206883)
(0.01073795523 1.994948026e-12 4.908584728)
(0.01375222344 3.041685202e-12 4.903420329)
(0.001381823761 1.277764156e-12 4.808498413)
(0.004453240912 3.117621314e-12 4.808295369)
(0.006842771383 -4.259132558e-13 4.806410567)
(0.009519711075 1.469461106e-12 4.802982406)
(0.01220917081 2.908503339e-12 4.798105615)
(0.001931020907 1.709110011e-12 4.748839201)
(0.005090575904 5.708625655e-12 4.74858469)
(0.008128550558 5.775154447e-12 4.746719957)
(0.01127600533 6.879154793e-12 4.743341976)
(0.01443749437 7.003355231e-12 4.738552373)
(0.001047788369 2.135244778e-13 4.613540943)
(0.00381459785 4.342269847e-13 4.61302805)
(0.006213828489 6.309595755e-13 4.611386764)
(0.00857349189 6.592772414e-13 4.608544423)
(0.01092908787 5.781095335e-13 4.604556299)
(2.365810227 -5.789582563e-11 35.86396486)
(1.419304872 -4.891063627e-11 37.37298517)
(1.297099203 -4.922497704e-11 38.74258028)
(1.273994325 -4.821770196e-11 39.79273998)
(1.274560882 -4.046414763e-11 40.71154032)
(1.298204703 -5.057086359e-11 41.42995274)
(1.319280976 -4.637064254e-11 41.96196596)
(1.331139685 -4.684618379e-11 42.41080935)
(1.351875153 -3.534930413e-11 42.78170202)
(1.361368042 -4.807718573e-11 43.071579)
(1.388721824 -3.782836609e-11 43.31879114)
(1.400765036 -3.296223258e-11 43.47833585)
(1.420773968 -3.440011667e-11 43.58143362)
(1.452133974 -2.995844602e-11 43.57860395)
(1.475126115 -2.747309417e-11 43.488026)
(1.536235328 -2.355324337e-11 43.23180569)
(1.587537372 -1.985560766e-11 42.76659274)
(1.46667288 -1.183067379e-11 42.16443654)
(1.370014847 -1.474924414e-11 41.64290509)
(1.184723224 -1.152289882e-11 40.64748424)
(1.056001214 -7.133100778e-12 38.61792534)
(0.9212694127 -5.469286345e-12 35.58005559)
(0.7195256981 -2.815951405e-12 31.94950248)
(0.5493388757 4.001153213e-12 28.224084)
(0.394846785 6.778364973e-12 24.87982969)
(0.2901950431 5.31744217e-12 22.05550986)
(0.227078771 8.122095806e-12 19.80038336)
(0.1841334569 4.34203679e-12 17.99277204)
(0.1608127111 1.822759817e-12 16.52370493)
(0.1503602897 8.168243773e-12 15.30343378)
(0.1457422536 3.58700972e-12 14.25900566)
(0.1410947398 4.715573664e-12 13.34761081)
(0.1330474474 6.13215373e-12 12.54835601)
(0.1214441583 1.201940756e-11 11.8526743)
(0.1083484155 -6.574711678e-12 11.25319704)
(0.09583891784 7.682617292e-12 10.73727693)
(0.08490640013 7.353922836e-12 10.29112043)
(0.07590230876 4.65645007e-12 9.899414332)
(0.06872690868 1.252500024e-11 9.549860891)
(0.06296598455 -4.269753695e-12 9.232524393)
(0.05818247219 1.125585122e-12 8.940388403)
(0.05403215068 1.691151185e-11 8.668939174)
(0.05054070719 9.683668887e-12 8.414582572)
(0.04736966178 -3.331397024e-13 8.175388419)
(0.04451421841 -5.476798136e-13 7.949422223)
(0.04194908989 2.518850869e-13 7.735540209)
(0.03956177198 -5.763028479e-12 7.532579161)
(0.03739206436 -1.213287371e-12 7.339637226)
(0.03538681914 -9.497250477e-14 7.155911634)
(0.033557298 -3.820581761e-12 6.980753605)
(0.03184086881 -5.201446755e-13 6.813298128)
(0.03022798319 -9.397848708e-12 6.65342993)
(0.02870470269 -2.56224977e-12 6.500305418)
(0.02729679498 6.658428281e-12 6.35398801)
(0.02597735424 1.110478749e-11 6.213398381)
(0.02473130316 -6.787686719e-12 6.078822107)
(0.02357985285 -1.932886422e-12 5.949240467)
(0.02245970947 1.078686021e-12 5.824880861)
(0.02146741968 8.993935269e-12 5.70520286)
(0.02043230864 8.609154955e-12 5.589707255)
(0.01959636527 -6.840558873e-12 5.479290508)
(0.01860250894 1.133279089e-11 5.371345038)
(0.01795889049 -4.165523929e-14 5.270098188)
(0.01687950155 4.734713405e-12 5.168004353)
(0.01659328361 3.351737474e-12 5.077159078)
(0.01535047986 1.024998299e-11 4.977348524)
(0.01572912508 3.656673642e-12 4.899127169)
(0.01396855086 3.757962233e-12 4.794062261)
(0.01650680177 7.214285209e-12 4.734604125)
(0.01247794314 5.129020066e-13 4.601245607)
(0.8998907753 -1.241096098e-10 26.03533921)
(-2.214146212 -2.168917787e-10 16.17014378)
(-1.400856688 -2.105623824e-10 11.48799152)
(-0.6950407211 -1.486658516e-10 8.282818331)
(-0.2448999927 -6.123989699e-11 3.047793621)
(1.495086882 -9.994166457e-11 29.51165111)
(0.1545122481 -1.930873259e-10 19.30500541)
(-0.4606217663 -1.986832895e-10 12.11253457)
(-0.2466707238 -1.336139345e-10 7.201132768)
(-0.1970795191 -5.790962058e-11 3.155698476)
(1.459956788 -9.341648804e-11 31.90067474)
(0.5341914483 -1.606588779e-10 22.60173121)
(-0.3057260087 -1.879125916e-10 14.39573674)
(-0.4122103575 -1.451060888e-10 7.961320462)
(-0.3434359735 -8.211397169e-11 3.491892452)
(1.394479879 -7.669060128e-11 33.63395363)
(0.8481047376 -1.15434848e-10 25.03278086)
(0.1720512671 -1.322591019e-10 17.0418103)
(-0.2099104223 -1.169075469e-10 9.929686415)
(-0.3892934397 -8.220928018e-11 4.853459079)
(1.33148295 -7.308255778e-11 35.0664181)
(1.033483319 -1.080666347e-10 26.96041666)
(0.448206044 -1.275070985e-10 19.26362548)
(-0.1141925171 -1.2964577e-10 12.29499742)
(-0.3160223213 -1.024759744e-10 7.05474862)
(1.386601771 -7.069922548e-11 36.18664957)
(1.153828496 -7.450678618e-11 28.47624231)
(0.6645839444 -8.004539779e-11 21.16904276)
(0.144835797 -9.743187951e-11 14.43515431)
(-0.1321526913 -6.949110008e-11 9.047878657)
(1.418223699 -6.981762888e-11 37.09314029)
(1.222985072 -6.535697643e-11 29.83133516)
(0.8284182304 -7.171258582e-11 22.9551129)
(0.3470948192 -8.711272774e-11 16.53202481)
(0.006241971829 -7.125159637e-11 11.09617856)
(1.418220931 -5.88748771e-11 37.88125413)
(1.263284861 -7.385952759e-11 31.07909422)
(0.9406114066 -9.638075423e-11 24.62988865)
(0.488215887 -8.843543038e-11 18.49027913)
(0.1185199313 -7.302307679e-11 13.04778088)
(1.437545664 -5.269120101e-11 38.55467857)
(1.301617981 -5.851111795e-11 32.15639519)