/*--------------------------------*- C++ -*----------------------------------*\
  =========                 |
  \\      /  F ield         | OpenFOAM: The Open Source CFD Toolbox
   \\    /   O peration     | Website:  https://openfoam.org
    \\  /    A nd           | Version:  10
     \\/     M anipulation  |
\*---------------------------------------------------------------------------*/
FoamFile
{
    format      ascii;
    class       volVectorField;
    location    "0.02499901733";
    object      U_0;
}
// * * * * * * * * * * * * * * * * * * * * * * * * * * * * * * * * * * * * * //

dimensions      [0 1 -1 0 0 0 0];

internalField   nonuniform List<vector> 
5170
(
(-0.006996262808 5.971109986e-15 49.63704777)
(-0.02281926631 1.66161925e-14 49.65921845)
(-0.0362694766 2.339775731e-15 49.65636927)
(-0.09585723565 -1.290666974e-13 49.62035387)
(0.01090889785 -8.1366535e-15 48.76268559)
(-0.01695485069 1.998779406e-12 50.11173648)
(-0.04270345996 6.791977528e-12 50.13322701)
(-0.05132621236 8.545986635e-12 50.13754305)
(-0.1141788903 1.642777321e-12 50.07501675)
(-0.04135621606 7.824887321e-14 48.65319724)
(-0.01823512694 -1.008745224e-13 50.66168067)
(-0.04946449683 -6.004682995e-12 50.67958612)
(-0.06263286351 -1.120921773e-11 50.68107765)
(-0.113620466 -4.158864013e-13 50.55060588)
(-0.07414955697 4.663536012e-14 48.11420406)
(-0.01613011871 -5.167125123e-12 50.99979556)
(-0.0526467697 -1.13828593e-11 51.00726176)
(-0.07064686717 -6.699845017e-12 50.98207784)
(-0.103829579 -8.421849563e-13 50.69730594)
(-0.08378953719 -3.482316734e-15 47.4955782)
(-0.02021460305 -7.03667149e-13 51.44710765)
(-0.05447463129 -8.274717491e-13 51.45028702)
(-0.08039479764 -9.687178286e-12 51.40228882)
(-0.09754426046 -1.374359799e-12 50.89757877)
(-0.08987597968 -7.097542402e-14 46.9487455)
(-0.01922050567 -4.320512551e-12 51.95796809)
(-0.05481940465 -1.440904772e-11 51.94522358)
(-0.08553076249 -2.673025826e-12 51.83982696)
(-0.09110126917 2.521438445e-12 51.06475137)
(-0.09083822307 9.688605231e-14 46.42624719)
(-0.01898768453 -7.852156984e-12 52.41747304)
(-0.05344702051 -1.675322627e-11 52.3978945)
(-0.08691041512 -1.189437659e-11 52.24476345)
(-0.08614907985 2.052060448e-12 51.20038272)
(-0.08916433223 2.35345282e-13 45.92061967)
(-0.01969361628 -4.585554382e-12 52.921054)
(-0.05363008525 -1.061969715e-11 52.88192543)
(-0.08436470995 -1.154358188e-12 52.68583447)
(-0.07741168317 2.948202219e-12 51.31384897)
(-0.08637676476 3.549639095e-13 45.44688658)
(-0.01891482888 -7.430141369e-12 53.37590578)
(-0.0498164341 -1.072085894e-11 53.31601809)
(-0.08450574427 -1.1751862e-11 52.98818475)
(-0.07424941783 1.752144154e-12 51.41843064)
(-0.0823685098 -4.247643955e-12 45.00249646)
(-0.01709206385 1.073499118e-12 53.82851984)
(-0.04337168245 -6.128811227e-12 53.76079426)
(-0.08456199862 -9.020917436e-12 53.43891133)
(-0.07899858241 1.070401422e-12 51.47874635)
(-0.07501660206 -7.58889362e-12 44.57080401)
(-0.01883198271 -1.301499126e-11 54.21533336)
(-0.04408140737 -3.143894337e-11 54.15049986)
(-0.07978619283 -1.084595721e-11 53.88367318)
(-0.06783380869 -1.047582637e-12 51.50118232)
(-0.06716530883 -7.197754927e-12 44.17406815)
(-0.01803487768 5.207555566e-13 54.68028729)
(-0.04722712192 2.414121131e-12 54.58178728)
(-0.07561685066 -1.508838406e-11 54.15221501)
(-0.05531493575 -7.852187299e-13 51.53788197)
(-0.05904765621 -1.048259535e-11 43.83582829)
(-0.01883320126 -1.273064363e-11 55.08663839)
(-0.04502043988 -3.700440614e-11 54.97598358)
(-0.07416721611 -1.697241969e-11 54.39738154)
(-0.05019231613 -3.561127887e-12 51.55021594)
(-0.05155783454 -1.319047903e-11 43.54182982)
(-0.01659021251 -2.660913823e-12 55.53428099)
(-0.04302329169 -8.353085391e-12 55.38561359)
(-0.0709728138 -1.516346208e-11 54.64001119)
(-0.04827164312 -4.31033211e-12 51.54203336)
(-0.04440622684 -1.209808962e-11 43.27503968)
(-0.01815946854 -1.492373571e-11 55.89601952)
(-0.03936866767 -3.734745702e-11 55.73484997)
(-0.06826714694 -1.574196075e-11 54.88498988)
(-0.04496147865 -5.78369241e-12 51.51684809)
(-0.03727789842 -1.613121615e-11 43.03342937)
(-0.01521530694 4.454529257e-13 56.31742822)
(-0.03982555303 -1.65139084e-11 56.10603982)
(-0.06474603826 -1.664963547e-11 55.10922787)
(-0.04197409141 -7.039907511e-12 51.45740324)
(-0.03037093138 -1.210362555e-11 42.83285013)
(-0.01823463513 -2.595714821e-11 56.64591049)
(-0.03440170831 -9.141971774e-12 56.4229535)
(-0.06080761273 -1.489848613e-11 55.33414552)
(-0.037597321 -7.283968299e-12 51.38314753)
(-0.02338201086 -6.200350308e-12 42.64898114)
(-0.01121308456 4.158178921e-11 57.05153465)
(-0.04424974687 -2.320238192e-11 56.7593722)
(-0.06073350925 -1.625676402e-11 55.50281932)
(-0.03348874634 -7.77724492e-12 51.31788981)
(-0.02503835693 -3.277838081e-12 42.51771462)
(-0.02353768134 -2.795890753e-11 57.38618452)
(-0.028193871 -2.495778779e-11 57.13165474)
(-0.09512655091 -1.524102471e-11 55.75712527)
(-0.07640148898 -7.534903003e-12 51.20843624)
(-0.02835673722 -2.80720495e-12 42.30647922)
(-0.1202126032 -1.526003294e-11 58.13235971)
(-0.3083292144 -2.371334465e-11 57.82723879)
(-0.3808788645 -1.712569845e-11 56.42424416)
(-0.4400887116 -7.168175769e-12 51.24663917)
(-0.1403279839 -2.800374965e-12 42.08984671)
(-0.06461109633 3.084532975e-12 9.537475196)
(0.2190934004 3.069161813e-11 11.84191117)
(-0.1309536972 4.153877404e-13 11.53597241)
(-0.6698632976 -1.371483964e-11 11.72562824)
(0.1064986066 2.026364826e-12 9.012025121)
(0.08990594507 -5.839459435e-11 10.03672934)
(0.03817022253 -5.814094688e-11 13.61763234)
(-0.1282758969 -1.817367966e-11 13.19605741)
(-0.358736959 -6.934514864e-11 13.2230165)
(-0.0939061208 -6.763987433e-12 8.776655238)
(0.1043087847 -1.506747773e-11 9.673316911)
(0.03459571947 5.839220689e-11 14.15008955)
(-0.09137330604 -1.82888437e-11 14.1053519)
(-0.2518726139 -2.863463945e-11 13.30521422)
(-0.08362576715 -1.440065988e-11 8.019029946)
(0.07624444816 -5.994546028e-11 9.258359657)
(0.04091205271 3.609364185e-11 14.4480451)
(-0.05262260326 -1.767776992e-12 14.71331776)
(-0.1877148734 -6.380090087e-11 13.40255218)
(-0.05805086337 1.226703944e-11 7.223834208)
(0.05167884819 -1.94330438e-10 9.069554603)
(0.03986892052 6.928168685e-12 14.69717775)
(-0.02807222114 -2.860098168e-11 15.32030948)
(-0.1303128575 -1.494281725e-10 13.53573605)
(-0.01685820806 -6.051306555e-11 6.902464066)
(0.04142955396 -9.487488731e-11 8.810869279)
(0.0369438886 -7.551023231e-12 14.85054371)
(-0.0166467027 -2.976047476e-11 15.60608811)
(-0.08905656349 -7.420465013e-11 13.55058494)
(-0.002919946055 4.945394324e-11 6.604741014)
(0.03021076579 -1.137395156e-10 8.633565077)
(0.0348232373 -1.485380186e-11 14.95481555)
(-0.006832328284 -3.740274908e-11 15.93303808)
(-0.05894180565 -9.093925523e-11 13.56304077)
(0.01000956809 1.331333045e-11 6.48142742)
(0.02269909985 -2.786984702e-10 8.475694205)
(0.01943081808 -4.291669843e-11 15.02662972)
(-0.002673465284 -5.343822937e-11 16.07680418)
(-0.03139317756 -1.540639857e-10 13.53712746)
(0.01524150894 -2.725483031e-11 6.409415129)
(0.01483810657 -1.141843682e-10 8.398552795)
(0.01097760228 -7.419983006e-11 15.08302382)
(-0.003002740658 -6.34750073e-11 16.1610753)
(-0.01362012358 -1.218617071e-10 13.51548849)
(0.01512188733 -5.099302962e-11 6.413959583)
(0.009757971986 -1.923854872e-10 8.342907697)
(0.004861291946 -1.921572587e-10 15.12375163)
(-0.003618956112 -8.126385355e-11 16.20787077)
(-0.005971639609 -1.179823128e-10 13.47178692)
(0.01330425967 3.58106351e-11 6.42422193)
(0.005392371021 -3.067743959e-10 8.318743522)
(0.0003351892967 -1.714043056e-10 15.15501382)
(-0.00388525479 -9.970228012e-11 16.23057089)
(-0.002306421645 -1.76363245e-10 13.43761622)
(0.01219558584 -4.757698635e-12 6.452652937)
(0.002780083266 -1.959250311e-10 8.310427918)
(-0.001845028997 -2.129036762e-10 15.17836387)
(-0.003016669 -1.107207015e-10 16.2337784)
(0.001638765408 -1.237987541e-10 13.3908613)
(0.0105454905 -6.339848686e-11 6.474798214)
(0.001510357398 -2.550193354e-10 8.314071675)
(-0.003903502395 -2.787810608e-10 15.19575088)
(-0.00299603859 -1.284914696e-10 16.22472645)
(0.002441284835 -1.501504603e-10 13.36731083)
(0.009276794729 2.288501553e-11 6.514127481)
(-0.003050234745 -2.800549103e-10 8.325488835)
(-0.01229037913 -2.450186984e-10 15.20651543)
(0.004831602801 -1.419341312e-10 16.20399767)
(0.01224859833 -1.719328607e-10 13.32662003)
(0.004763217028 -1.922382686e-11 6.531711302)
(-0.01999177779 -3.420687253e-10 8.355224514)
(-0.01990441274 -2.97626998e-10 15.22293188)
(0.007439951457 -1.57356003e-10 16.18734209)
(0.01720071457 -1.766568455e-10 13.30694957)
(0.01100647155 -4.400892981e-11 6.582063962)
(-0.0246821085 -3.515276165e-10 8.371554549)
(-0.01255943835 -2.815252148e-10 15.22393248)
(-0.006748291607 -1.718344156e-10 16.14221224)
(-0.01837240476 -2.038768446e-10 13.2526809)
(0.004608643928 -5.898426973e-11 6.593712519)
(-0.01793589645 -3.976951798e-10 8.477451341)
(-0.03650424521 -2.818065834e-10 15.28107381)
(-0.0284565006 -1.920810166e-10 16.13591356)
(0.01352181409 -2.219541889e-10 13.25912119)
(0.03161772029 -7.205098322e-11 6.639575408)
(-0.07472810833 -2.76063524e-10 8.643680946)
(-0.113585159 -2.768398085e-10 15.25531552)
(-0.06672032243 -2.518147956e-10 16.02192031)
(-0.03145099487 -2.121728782e-10 13.12148392)
(-0.007015081437 -7.758959576e-11 6.498079449)
(-0.2262120531 -2.14586141e-10 9.636877706)
(-0.253182466 -2.103790219e-10 15.47372055)
(-0.1782468659 -2.315940537e-10 15.99940458)
(-0.1069488089 -1.917435347e-10 13.08373128)
(-0.02100790464 -1.055798223e-10 6.565107266)
(-1.959388073 -2.240606296e-10 10.95358319)
(-1.961676176 -2.333869946e-10 14.70133038)
(-1.31958553 -2.314105003e-10 14.97164646)
(-0.2659478117 -1.818789663e-10 11.99628243)
(-0.4129399372 -9.068211752e-11 5.38732594)
(0.004401384574 -1.160594279e-11 60.31513715)
(0.005331220131 -2.068496825e-11 59.78823061)
(0.07041850801 -1.847689187e-11 57.61183886)
(0.001036288579 -7.607101969e-12 52.29281029)
(1.084190376 -9.424722269e-12 43.18765351)
(0.001311040013 -1.052444721e-11 60.27594683)
(0.005612646948 -1.877266012e-11 59.71097959)
(0.06268684199 -1.688559228e-11 57.49353271)
(0.03723908416 -8.880791114e-12 52.11724798)
(0.903553999 -1.857668504e-11 43.43523609)
(0.006837215807 -8.703629936e-12 60.21846566)
(-0.006281127634 -1.741173822e-11 59.59212581)
(0.09854967955 -1.940397336e-11 57.23679707)
(0.1857604964 -7.293436055e-12 51.93835681)
(0.9958121099 -1.987682283e-11 43.8787753)
(0.009199337088 -1.149832148e-11 60.15255694)
(0.003439957461 -2.063754897e-11 59.44241543)
(0.1063571515 -2.176813134e-11 56.92740343)
(0.3330652911 -1.476100746e-11 51.65280394)
(1.072097494 -2.848846929e-11 44.31143063)
(0.018074933 -1.537347153e-12 60.04787956)
(0.01001920174 -9.596086102e-12 59.26065422)
(0.1467665625 -1.99772453e-11 56.60032253)
(0.4696299796 -1.064276876e-11 51.33604018)
(1.129776337 -2.2221111e-11 44.77003326)
(0.01450841786 -1.606326935e-11 59.9312428)
(0.02801343086 -3.36743517e-11 59.03959734)
(0.2009981556 -1.520176667e-11 56.19329016)
(0.6246617207 -2.107989005e-11 51.03379641)
(1.160154415 -3.451073941e-11 45.15602272)
(0.01604806521 -3.230884058e-12 59.76690551)
(0.05161231179 -7.407086829e-13 58.76767178)
(0.2760525887 -7.757951003e-12 55.71410707)
(0.7392261168 -1.220274135e-11 50.74487441)
(1.184205596 -2.852780645e-11 45.40797925)
(0.02227035827 -1.404733955e-11 59.60606352)
(0.08329266366 -3.188481983e-11 58.45429097)
(0.3724006249 -2.812006755e-11 55.25205406)
(0.8340161831 -2.872529367e-11 50.52440177)
(1.210068372 -3.846280817e-11 45.61404294)
(0.03521967623 6.314576302e-13 59.41587562)
(0.1378559071 1.047268228e-11 58.06205047)
(0.4825323867 -6.139678082e-12 54.74280763)
(0.9209332976 -1.288682927e-11 50.31777925)
(1.24338604 -2.282384744e-11 45.76689586)
(0.04979952932 -1.067284843e-11 59.10380175)
(0.2036420373 -4.323937283e-11 57.59789286)
(0.5876229261 -2.913092489e-11 54.21910541)
(0.9845650658 -3.149390455e-11 50.09758357)
(1.266169348 -4.740971749e-11 45.86244701)
(0.08569084984 -7.247684434e-12 58.83637485)
(0.3052575534 -2.059724282e-11 57.10700998)
(0.7039389229 -4.791975636e-12 53.71983374)
(1.055239848 -1.693992134e-11 49.88284062)
(1.306087072 -3.202523531e-11 45.93035318)
(0.1355039117 -9.747805095e-12 58.25690527)
(0.4159179009 -2.834270987e-11 56.39315994)
(0.7957004696 -4.399455638e-11 53.16400873)
(1.102728174 -3.3490083e-11 49.60121272)
(1.323313624 -3.211579565e-11 45.92118695)
(0.1928522471 -6.061600934e-12 57.64046163)
(0.5222308143 -1.452880846e-11 55.74563528)
(0.8725478084 -1.017864254e-11 52.69244809)
(1.151061098 -2.213918812e-11 49.34534763)
(1.350345434 -2.94252693e-11 45.87982969)
(0.2552181051 -5.615039367e-12 56.67265679)
(0.6188849351 -1.510875565e-11 54.89158077)
(0.9452331373 -2.003809833e-11 52.0678296)
(1.199319888 -2.29164523e-11 48.95948425)
(1.383059921 -2.704331861e-11 45.73910583)
(0.2491089112 -2.823970389e-12 55.45025796)
(0.698409127 -4.137483359e-12 53.96036397)
(0.9796878477 1.167173804e-12 51.43997382)
(1.225174159 -1.680686901e-11 48.56784628)
(1.404649213 -2.417309658e-11 45.5333412)
(0.2954362812 -1.907350094e-12 54.16073132)
(0.7186803372 -4.251448143e-12 52.90096622)
(1.022887499 -3.735856466e-12 50.6475604)
(1.274323221 -1.0002494e-13 47.99088973)
(1.463407978 -1.583233887e-11 45.14607826)
(0.2072915979 1.285760686e-12 52.57391318)
(0.7455020824 3.225559162e-12 51.55969229)
(1.035693988 9.253082201e-12 49.60371314)
(1.298084959 -3.2060181e-12 47.19640002)
(1.493717464 -1.420845232e-11 44.55801397)
(0.2657518173 -1.645146156e-13 50.85987141)
(0.6673860956 1.556121163e-12 50.03087521)
(0.9629889119 1.024568906e-11 48.37455189)
(1.207732743 7.992421175e-13 46.24003541)
(1.391543347 -7.204595336e-12 43.83013548)
(0.2092500311 1.287273677e-11 49.40257836)
(0.6310969724 2.471165376e-11 48.70856395)
(0.9022310009 1.419498861e-11 47.30026512)
(1.141786821 7.865402473e-13 45.42374322)
(1.316301454 -1.36460897e-11 43.2275426)
(0.2308843054 -3.322053487e-12 48.15470894)
(0.581641174 -9.473766191e-12 47.51105638)
(0.8628216179 -5.646301636e-12 46.17692071)
(1.067359672 -7.191835005e-12 44.36155081)
(1.169350942 -1.034280245e-11 42.21446401)
(0.1879225137 -2.556545221e-12 45.62173409)
(0.5894258798 -5.679887023e-12 45.12224986)
(0.8210612726 -6.690736817e-12 43.93433841)
(0.9934469922 -7.117643397e-12 42.21290315)
(1.066592359 -7.356131781e-12 40.11575062)
(0.1883090475 2.848360653e-12 41.06544285)
(0.49392578 1.02855346e-11 40.82296023)
(0.7129152938 8.10121024e-13 39.96263164)
(0.8621198828 -2.700086069e-12 38.59286383)
(0.9267890108 -4.604296869e-12 36.82843953)
(0.1344675527 1.917168188e-12 36.04716134)
(0.3443690335 5.563539499e-12 35.9364487)
(0.5084917615 9.494131236e-12 35.33451422)
(0.6333870193 2.803874891e-12 34.30576658)
(0.7045143394 -1.182398997e-12 32.92271631)
(0.09059615691 2.155170133e-12 31.15434443)
(0.2344605286 6.246184417e-12 31.11470478)
(0.3547235588 1.196268665e-11 30.69702367)
(0.4554109021 6.887308463e-12 29.94774721)
(0.5246068611 4.701995108e-12 28.92503458)
(0.05881022758 4.379199024e-12 26.90442368)
(0.153657862 1.244016716e-11 26.89286429)
(0.2369555405 9.355332663e-12 26.61202036)
(0.3107819762 7.677248871e-12 26.09417624)
(0.3675756658 6.9816024e-12 25.37375677)
(0.03906048802 1.035830534e-12 23.52117689)
(0.1027510872 2.839064327e-12 23.51476864)
(0.1615045802 3.777859309e-12 23.31433483)
(0.2170919476 4.388874886e-12 22.94005372)
(0.2642323172 4.919429417e-12 22.41478996)
(0.02862288848 -1.974510619e-12 20.90709843)
(0.07560330319 -5.869440456e-12 20.89802488)
(0.1201864002 1.633150552e-13 20.74569486)
(0.1640295211 3.896046658e-12 20.46511028)
(0.2036187554 6.747248969e-12 20.07162325)
(0.01895747963 7.111400275e-12 18.86014917)
(0.06161312348 1.840825133e-12 18.847205)
(0.09476249497 2.048869743e-12 18.72668536)
(0.1301951805 2.990040753e-12 18.50917653)
(0.163564506 4.00222477e-12 18.20520836)
(0.01906800052 3.861533093e-12 17.22034675)
(0.05108593956 1.071016816e-11 17.20602912)
(0.08167098473 1.163163417e-11 17.10827482)
(0.1127441695 6.222105433e-12 16.93541366)
(0.1423617776 3.226320851e-12 16.69478659)
(0.01481349535 2.003720027e-12 15.87224399)
(0.04728102914 4.13867981e-12 15.85774852)
(0.07573929658 7.244142141e-12 15.77758283)
(0.1050836481 9.713800821e-12 15.63774131)
(0.1332568503 8.608945658e-12 15.44370005)
(0.01670263836 3.391384804e-12 14.72556094)
(0.04644085145 7.877057081e-12 14.71264215)
(0.07356271905 6.324521877e-12 14.64683593)
(0.1015820884 5.116991019e-12 14.53281541)
(0.1289032922 4.19028972e-12 14.37459603)
(0.01428680471 3.821387281e-12 13.73391034)
(0.04617162947 8.026556684e-12 13.72246262)
(0.07084953179 5.775504456e-12 13.66797003)
(0.09798163592 4.786655896e-12 13.57408941)
(0.124458399 4.466674899e-12 13.44378215)
(0.01599284325 8.512544976e-13 12.87224474)
(0.04190519221 2.445077834e-12 12.86191081)
(0.06660892246 3.902943215e-12 12.81619479)
(0.09219698805 5.458910244e-12 12.73792838)
(0.1171831284 6.930531639e-12 12.62937131)
(0.01217255193 5.010501288e-12 12.13022049)
(0.03955666164 4.214535041e-12 12.11988973)
(0.06060126507 6.264718363e-12 12.08043148)
(0.0838700993 8.508242879e-12 12.01395242)
(0.1067864391 1.063132206e-11 11.92211814)
(0.01292597385 -3.98561553e-13 11.49539547)
(0.03391549552 -1.227937138e-12 11.48530489)
(0.05396634819 -2.204271962e-12 11.45063056)
(0.07479199272 -3.432101076e-12 11.39306942)
(0.0952422788 -5.045448857e-12 11.3139478)
(0.008502684536 1.909771999e-12 10.95307942)
(0.03104256005 1.414372658e-12 10.94251442)
(0.04768602244 2.510670634e-12 10.9112899)
(0.06599054235 3.985063414e-12 10.86055764)
(0.08410951949 5.79755109e-12 10.79126961)
(0.01012529082 -2.47734578e-12 10.484819)
(0.02655434246 6.95183898e-12 10.47462572)
(0.04222739035 5.95129002e-12 10.44634433)
(0.05846162063 6.146821322e-12 10.40106071)
(0.07449912357 6.790881978e-12 10.33959954)
(0.006441755728 5.231403663e-13 10.07496465)
(0.02449072862 1.166167104e-12 10.06494616)
(0.03783294403 2.048762544e-12 10.03910643)
(0.05221980189 2.992879038e-12 9.99832763)
(0.06645138662 4.000164324e-12 9.943237118)
(0.008240494642 2.227486258e-12 9.709471155)
(0.02153997106 6.329614633e-12 9.699913742)
(0.03416453743 1.143703645e-11 9.676258926)
(0.04728147249 1.078633278e-11 9.639357421)
(0.06030862144 1.164782883e-11 9.589676511)
(0.005350884078 3.249354479e-13 9.377959526)
(0.0203795667 8.94331948e-13 9.368961447)
(0.03141192454 1.933979317e-12 9.347331949)
(0.04336904028 -4.10779929e-12 9.313818689)
(0.05528565992 -4.62166971e-12 9.268801063)
(0.006980786259 1.947842138e-12 9.07301463)
(0.01825060033 4.32756572e-12 9.064590605)
(0.02893857489 2.818210989e-12 9.044817977)
(0.04002379244 1.491969384e-12 9.014343638)
(0.05104899228 1.01377474e-12 8.973466361)
(0.00452066299 2.72377804e-12 8.7899987)
(0.01728347262 5.717014876e-12 8.782162773)
(0.02692717729 9.845844071e-12 8.764069957)
(0.03726209367 9.831659232e-12 8.736311501)
(0.04765617713 1.411531978e-11 8.699123371)
(0.006047556928 1.192118251e-12 8.525092654)
(0.01581503305 3.360521955e-12 8.517890599)
(0.02511567081 5.451162828e-12 8.501370047)
(0.03479101982 7.324823953e-12 8.476066613)
(0.04437381007 8.916925259e-12 8.442170631)
(0.003898623211 8.939362487e-13 8.276420468)
(0.01468546994 1.878608742e-12 8.269786056)
(0.02346742447 3.462973276e-12 8.254692365)
(0.03258381854 -1.286005947e-12 8.231590772)
(0.04156865675 -1.68008798e-12 8.200633404)
(0.005335279283 -3.777867926e-12 8.041729024)
(0.01393915551 -2.882506466e-12 8.035707096)
(0.02210305211 -1.774552528e-12 8.021935334)
(0.03062157947 -1.215931558e-12 8.000831007)
(0.0390707103 -7.98439151e-13 7.972539581)
(0.003529623701 -1.504544725e-14 7.81997372)
(0.01341259253 2.720852923e-14 7.814518936)
(0.02087420931 1.293994302e-13 7.80194663)
(0.02879028013 2.479118484e-13 7.782634807)
(0.03666460854 2.852911312e-13 7.756722128)
(0.004731392057 -2.767324276e-13 7.609936156)
(0.01236899929 -9.706875189e-13 7.604989057)
(0.01961904404 -1.57286722e-12 7.593490109)
(0.02718266761 -6.702490413e-12 7.575781271)
(0.03470064729 -7.045147829e-12 7.551988024)
(0.003177843402 -2.719708662e-13 7.410290735)
(0.01208487312 -5.51146753e-13 7.405954025)
(0.01855383664 -9.221905719e-13 7.3954868)
(0.0256719281 -1.202651637e-12 7.379258558)
(0.03278269845 -1.281934579e-12 7.357410772)
(0.004219826634 1.684753889e-12 7.220823288)
(0.01104247132 4.006061472e-12 7.216824713)
(0.01752190143 2.598624876e-12 7.207215049)
(0.02429159072 1.427673744e-12 7.192300597)
(0.0310177275 4.886436106e-13 7.172201481)
(0.003369964846 -5.408947663e-12 7.040248134)
(0.01083954889 -5.218196471e-12 7.036684468)
(0.01660186612 -8.308516968e-12 7.027904762)
(0.02301283213 -5.56205478e-12 7.014194926)
(0.02940624913 -4.299747622e-12 6.995679957)
(0.003788894268 -1.78927288e-13 6.867808608)
(0.009931730894 -3.901548231e-13 6.864666017)
(0.01574813521 -4.792250102e-13 6.856648754)
(0.02183940889 -4.586205826e-13 6.844040112)
(0.02789743816 -4.648847032e-13 6.826968928)
(0.003034192709 6.046254725e-12 6.703442279)
(0.009752997563 1.441701087e-12 6.700664941)
(0.01493561645 -4.080175213e-12 6.69333434)
(0.02071229139 -9.138246506e-12 6.681721251)
(0.0264810829 -9.901958606e-12 6.665957281)
(0.003381311685 1.833116095e-12 6.546176564)
(0.008954354567 5.57184398e-12 6.543756506)
(0.01418609574 1.557321806e-12 6.537059991)
(0.0196744869 -5.474103673e-13 6.526358092)
(0.02515145709 -1.964466986e-12 6.511787484)
(0.002736787087 -7.116907336e-13 6.39610954)
(0.00879704072 -1.455839731e-12 6.393998103)
(0.01347558729 -3.130497352e-12 6.387875005)
(0.01869159803 5.32384072e-13 6.378001117)
(0.02390123719 2.980331085e-12 6.364518534)
(0.003052119785 1.169736897e-12 6.252065035)
(0.008104647934 3.226635514e-12 6.250247471)
(0.01282391227 5.377668412e-12 6.244654014)
(0.01779336945 7.556545221e-12 6.235543843)
(0.02274969169 9.724697526e-12 6.223061616)
(0.002475009824 -7.267832473e-12 6.114370788)
(0.007962138851 -4.550306928e-12 6.112797616)
(0.01220104051 -6.620412455e-12 6.107680291)
(0.01692759056 -5.617304251e-12 6.099266391)
(0.02165581548 -5.184206581e-12 6.08770153)
(0.002761741642 2.065968121e-12 5.981929315)
(0.007355641891 5.872232171e-12 5.980580002)
(0.01163405166 2.560029913e-12 5.975899521)
(0.01614565798 8.839538189e-13 5.968128043)
(0.02065715594 3.304946435e-13 5.957411311)
(0.002248440981 2.446610415e-12 5.855000039)
(0.00722729213 5.522239766e-12 5.8538255)
(0.01107323056 3.171022174e-12 5.849535026)
(0.01536729854 2.034261878e-12 5.84235102)
(0.01967351679 1.337747673e-12 5.832415724)
(0.002515583249 -1.197929946e-12 5.73296792)
(0.006685496065 9.831413525e-14 5.731949546)
(0.01058447 2.934336478e-12 5.728014833)
(0.01469340138 5.25211293e-12 5.721374232)
(0.01880429947 7.463900476e-12 5.712163385)
(0.00204039045 2.08123756e-12 5.615356561)
(0.006566925605 4.371982553e-12 5.614455321)
(0.01006747829 7.256091563e-12 5.610837826)
(0.01397463578 7.130472362e-12 5.604693943)
(0.01789517304 6.702957236e-12 5.596150974)
(0.002316986029 -6.168921054e-13 5.502992583)
(0.006083949828 -1.748460325e-12 5.502200597)
(0.009655632394 -2.938147281e-12 5.4988736)
(0.01340714576 -4.256918153e-12 5.493187466)
(0.01716421357 -5.708150828e-12 5.485260926)
(0.001856564514 3.422910909e-12 5.39327144)
(0.005975438187 8.176853646e-12 5.392566243)
(0.009158875798 7.909031019e-12 5.389501835)
(0.01271549438 9.55752578e-12 5.384236182)
(0.01628935241 1.135493873e-11 5.376878133)
(0.002128521755 -4.844043089e-14 5.290379096)
(0.005566158458 -1.707989221e-13 5.289769064)
(0.008841808925 -4.234818895e-13 5.286948249)
(0.01227868874 -8.691907199e-13 5.282066188)
(0.01572159679 -1.59851603e-12 5.27522398)
(0.001683348887 1.113108812e-12 5.18675956)
(0.005415452149 2.291465482e-12 5.186232257)
(0.008304075443 4.133064287e-12 5.18363518)
(0.01153110547 6.284754116e-12 5.179107513)
(0.01477622845 5.042946264e-12 5.172744095)
(0.001965973944 1.74474706e-13 5.094512082)
(0.005138908743 4.941679714e-13 5.094086528)
(0.008163217902 8.09328939e-13 5.091698569)
(0.01133748831 1.083239732e-12 5.087486101)
(0.01451473637 1.693660997e-12 5.081542225)
(0.001529758216 1.209214643e-12 4.993316935)
(0.00492179619 2.525113029e-12 4.992986413)
(0.00754718108 4.614448551e-12 4.990803009)
(0.01048278698 6.68456526e-12 4.98690221)
(0.01342876466 8.800419789e-12 4.981375679)
(0.001861048322 1.382073003e-12 4.913836771)
(0.004864641456 4.556555422e-12 4.913619277)
(0.007725907571 3.47203925e-13 4.911627163)
(0.01073331795 1.942899536e-12 4.907998827)
(0.01375018092 3.040448096e-12 4.902828398)
(0.001382156416 1.31948774e-12 4.8079675)
(0.004452384302 2.119134997e-12 4.807756766)
(0.006839627116 -2.914928824e-13 4.805863945)
(0.009514700765 1.569667321e-12 4.802427551)
(0.01220623905 2.921605592e-12 4.797541912)
(0.001927174179 1.844492819e-12 4.748309748)
(0.005082046225 4.939244545e-12 4.748045375)
(0.008115036239 5.815104107e-12 4.746168854)
(0.01125653422 6.851580076e-12 4.742778025)
(0.01441275628 6.923171629e-12 4.737973705)
(0.001045525513 2.135940048e-13 4.61324561)
(0.003807804562 4.417595743e-13 4.612726684)
(0.006202921496 6.836431105e-13 4.61107888)
(0.008558400046 6.490415694e-13 4.6082295)
(0.01091013047 5.53448858e-13 4.604233242)
(2.365927968 -5.791715065e-11 35.86414659)
(1.415934329 -4.860790731e-11 37.37174816)
(1.289067649 -4.932753193e-11 38.74215732)
(1.275762119 -4.816757196e-11 39.79620758)
(1.276911511 -4.038329773e-11 40.71640245)
(1.298653077 -5.219651909e-11 41.43151146)
(1.317609244 -4.669708209e-11 41.96182227)
(1.329920535 -4.671025532e-11 42.41309844)
(1.350727181 -3.575696471e-11 42.78317565)
(1.361055367 -4.81321626e-11 43.07516376)
(1.38914608 -3.79002873e-11 43.3214336)
(1.400110839 -3.295321748e-11 43.47955356)
(1.423001385 -3.44933026e-11 43.57882752)
(1.453221672 -2.994685113e-11 43.57137898)
(1.477586434 -2.726783389e-11 43.47538802)
(1.541989863 -2.359723108e-11 43.20832696)
(1.583643135 -1.996069598e-11 42.73389175)
(1.473172534 -1.190185724e-11 42.13308858)
(1.369878448 -1.490860875e-11 41.63037615)
(1.189344072 -1.160987723e-11 40.64603484)
(1.048644389 -7.374298693e-12 38.56656006)
(0.9172338649 -5.454703016e-12 35.48515992)
(0.7157214704 -2.833306568e-12 31.84213359)
(0.5469415191 3.954566077e-12 28.12616134)
(0.3921405723 6.933234496e-12 24.79966087)
(0.2884918557 5.306160486e-12 21.99406109)
(0.2260313982 8.483760788e-12 19.75477533)
(0.1834965434 4.369416865e-12 17.95956167)
(0.1606499078 2.040245911e-12 16.4996215)
(0.1505596147 8.21414176e-12 15.28584318)
(0.1459967308 3.596287091e-12 14.2454516)
(0.1411882338 4.6338956e-12 13.33718534)
(0.1330297043 6.220744548e-12 12.54037328)
(0.1213199949 1.197232264e-11 11.84673534)
(0.1082344096 -6.505281169e-12 11.24900275)
(0.09568007866 7.370884216e-12 10.73440143)
(0.08476389007 7.147740954e-12 10.28917625)
(0.07580284279 4.681944006e-12 9.898043961)
(0.06868980281 1.238856441e-11 9.548933107)
(0.06293588187 -4.220753829e-12 9.231870715)
(0.05812141112 1.131636359e-12 8.939914697)
(0.05404935679 1.690973151e-11 8.668577365)
(0.05053505994 9.697698388e-12 8.414306012)
(0.04734778145 -3.924900957e-13 8.175182983)
(0.0445218205 -5.530977137e-13 7.949255286)
(0.0419407999 2.504120714e-13 7.735376776)
(0.03956756126 -5.47970303e-12 7.532393218)
(0.03739490634 -1.214274653e-12 7.33940708)
(0.03538536504 -7.819768046e-14 7.15563861)
(0.03355457972 -3.801933747e-12 6.980420187)
(0.03183692562 -5.16484517e-13 6.812898455)
(0.03022461301 -9.218323018e-12 6.65296516)
(0.02870725691 -2.566012859e-12 6.499778414)
(0.02729157706 6.752600393e-12 6.353407052)
(0.02597606893 1.111531179e-11 6.212775056)
(0.02473293577 -6.759338276e-12 6.078170753)
(0.02358929854 -2.082405788e-12 5.948576588)
(0.02246983833 1.07570643e-12 5.824220856)
(0.02147848805 8.980264866e-12 5.704559835)
(0.02044410026 8.682313465e-12 5.589091654)
(0.01960833633 -6.813538143e-12 5.478702522)
(0.01861247003 1.149261252e-11 5.370782134)
(0.0179655849 -1.616435583e-13 5.269548328)
(0.01688613951 4.726309058e-12 5.167460257)
(0.01659269867 3.206517352e-12 5.076603352)
(0.01534974194 1.025288275e-11 4.976782645)
(0.01572521141 3.650398313e-12 4.89853093)
(0.01396439906 3.752735699e-12 4.79349183)
(0.01647881847 7.204715788e-12 4.734013877)
(0.01245617047 4.729492831e-13 4.600915812)
(0.9015318246 -1.240661166e-10 26.03590169)
(-2.207590518 -2.168580419e-10 16.17194556)
(-1.400185871 -2.105948759e-10 11.47975564)
(-0.6965734654 -1.487762935e-10 8.286835308)
(-0.2433946171 -6.126088723e-11 3.051071322)
(1.491100385 -9.978607605e-11 29.51061028)
(0.1505922599 -1.936996224e-10 19.29624693)
(-0.4622691254 -1.987658473e-10 12.11401482)
(-0.2383643738 -1.335833039e-10 7.208605691)
(-0.196824031 -5.793137855e-11 3.154581306)
(1.448127714 -9.363795625e-11 31.90024323)
(0.570001031 -1.610186704e-10 22.59985884)
(-0.2800150718 -1.881674225e-10 14.39837111)
(-0.4242255893 -1.452865629e-10 7.964711357)
(-0.3465943557 -8.221029026e-11 3.490762181)
(1.399072257 -7.662508126e-11 33.64174881)
(0.8524103329 -1.154432506e-10 25.04311802)
(0.1669254087 -1.321367427e-10 17.04771628)
(-0.2270852394 -1.169138548e-10 9.932182957)
(-0.3889334121 -8.231021535e-11 4.854122215)
(1.333937431 -7.24459096e-11 35.07180399)
(1.036839612 -1.07989711e-10 26.96791074)
(0.4551388214 -1.271197127e-10 19.26980648)
(-0.1068617959 -1.2777033e-10 12.30412285)
(-0.3127744513 -1.023640958e-10 7.060423514)
(1.387752238 -6.919831966e-11 36.18995138)
(1.156779837 -7.526973195e-11 28.48128712)
(0.6648665842 -8.121858826e-11 21.1753702)
(0.1424141051 -9.4893773e-11 14.44335584)
(-0.1335095408 -6.938539348e-11 9.055688167)
(1.415927089 -7.032678397e-11 37.09411092)
(1.220919792 -6.543014912e-11 29.83412634)
(0.826209612 -7.186796821e-11 22.96072413)
(0.3444501616 -8.776309407e-11 16.54095048)
(0.003153678777 -7.138977111e-11 11.10710222)
(1.416587933 -5.863682651e-11 37.8836825)
(1.262360684 -7.379400552e-11 31.08302057)
(0.9383246384 -9.460522314e-11 24.63600947)
(0.4827553414 -8.851860165e-11 18.49958915)
(0.1104897361 -7.305790578e-11 13.05691264)
(1.43607309 -5.215058871e-11 38.55634187)
(1.299857462 -5.90520807e-11 32.15932181)