/*--------------------------------*- C++ -*----------------------------------*\
  =========                 |
  \\      /  F ield         | OpenFOAM: The Open Source CFD Toolbox
   \\    /   O peration     | Website:  https://openfoam.org
    \\  /    A nd           | Version:  10
     \\/     M anipulation  |
\*---------------------------------------------------------------------------*/
FoamFile
{
    format      ascii;
    class       volScalarField;
    location    "1";
    object      CH4;
}
// * * * * * * * * * * * * * * * * * * * * * * * * * * * * * * * * * * * * * //

dimensions      [0 0 0 0 0 0 0];

internalField   nonuniform List<scalar> 
4000
(
1
1
1
1
1
1
0.999999
0.999998
0.999996
0.99999
0.999979
0.999955
0.999904
0.999799
0.999586
0.999169
0.998377
0.996928
0.994378
0.990085
0.983211
0.972798
0.957933
0.937954
0.912563
0.88193
0.846602
0.807362
0.765115
0.720784
0.675246
0.629264
0.583445
0.538356
0.494631
0.452584
0.412451
0.374395
0.338514
0.304851
0.273406
0.244139
0.216986
0.191862
0.168671
0.147307
0.127662
0.109627
0.0930968
0.0779686
0.064149
0.051557
0.0401325
0.0301338
0.0213196
0.0134537
0.00722316
0.00332684
0.00149369
0.000648466
0.000270252
0.000107344
4.03302e-05
1.42241e-05
4.70316e-06
1.55568e-06
7.37582e-07
5.22928e-07
3.9903e-07
2.96775e-07
2.12042e-07
1.44634e-07
9.3761e-08
5.76642e-08
3.36968e-08
1.87899e-08
1.00541e-08
5.19184e-09
2.59629e-09
1.26518e-09
6.0428e-10
2.83442e-10
1.30813e-10
5.95123e-11
2.67198e-11
1.18615e-11
5.21086e-12
2.26791e-12
9.78946e-13
4.19428e-13
1.78541e-13
7.56115e-14
3.18978e-14
1.34468e-14
5.7282e-15
2.45117e-15
1.13106e-15
4.91443e-16
1.89049e-16
3.43129e-17
1
1
1
1
1
1
0.999999
0.999998
0.999995
0.99999
0.999978
0.999952
0.999897
0.999785
0.99956
0.999122
0.998299
0.996808
0.994209
0.989873
0.982988
0.972627
0.9579
0.938137
0.913058
0.882822
0.847907
0.809039
0.767074
0.722914
0.677427
0.631352
0.585447
0.540495
0.496742
0.45457
0.414256
0.375989
0.339886
0.306001
0.274342
0.244874
0.217535
0.192245
0.168904
0.147404
0.127645
0.109512
0.0929001
0.0777039
0.0638284
0.0511908
0.0397275
0.0297437
0.0209101
0.0130663
0.0069138
0.00317562
0.00142093
0.000614371
0.000254823
0.000100651
3.75693e-05
1.31524e-05
4.32091e-06
1.44542e-06
7.1861e-07
5.16317e-07
3.92229e-07
2.90127e-07
2.06385e-07
1.40387e-07
9.09639e-08
5.60802e-08
3.29554e-08
1.85319e-08
1.00182e-08
5.22709e-09
2.64582e-09
1.30265e-09
6.28216e-10
2.97349e-10
1.38354e-10
6.33719e-11
2.86081e-11
1.27462e-11
5.61134e-12
2.44448e-12
1.0549e-12
4.51394e-13
1.91731e-13
8.0968e-14
3.40514e-14
1.43131e-14
6.0842e-15
2.61015e-15
1.18673e-15
5.60566e-16
2.02023e-16
3.63694e-17
1
1
1
1
1
1
0.999999
0.999998
0.999995
0.999989
0.999977
0.999949
0.999893
0.999777
0.999545
0.999097
0.998258
0.996744
0.994118
0.989756
0.982858
0.972513
0.957848
0.938216
0.913356
0.883371
0.848739
0.810166
0.76848
0.724539
0.679156
0.633207
0.587558
0.54258
0.498759
0.456475
0.416013
0.37757
0.34127
0.307179
0.275308
0.245631
0.218092
0.192608
0.169085
0.147431
0.127533
0.109279
0.0925628
0.0772821
0.0633431
0.0506657
0.0391929
0.0292868
0.0201859
0.0124454
0.00644322
0.00295085
0.00131499
0.000565696
0.000233222
9.14736e-05
3.38695e-05
1.17529e-05
3.83633e-06
1.31035e-06
6.89996e-07
5.03582e-07
3.82004e-07
2.81879e-07
2.00222e-07
1.3618e-07
8.83717e-08
5.46556e-08
3.22683e-08
1.82519e-08
9.93403e-09
5.22358e-09
2.66067e-09
1.31685e-09
6.38262e-10
3.03738e-10
1.42093e-10
6.54117e-11
2.96805e-11
1.32839e-11
5.87334e-12
2.56713e-12
1.11067e-12
4.76086e-13
2.024e-13
8.54989e-14
3.59668e-14
1.51458e-14
6.41249e-15
2.8201e-15
1.35358e-15
5.35383e-16
1.83586e-16
3.58472e-17
1
1
1
1
1
1
0.999999
0.999998
0.999995
0.999989
0.999976
0.999948
0.99989
0.999772
0.999536
0.999082
0.998234
0.996708
0.99407
0.989699
0.982803
0.972482
0.957876
0.938342
0.913611
0.883808
0.849375
0.810995
0.769465
0.725636
0.680493
0.634826
0.589188
0.54418
0.500295
0.457918
0.417335
0.37875
0.342293
0.308033
0.275989
0.246136
0.218419
0.192769
0.169101
0.147309
0.127283
0.108918
0.0921065
0.0767461
0.0627434
0.0500184
0.0385133
0.0286007
0.0195145
0.0118413
0.00597878
0.00272868
0.00121053
0.000517945
0.000212196
8.26302e-05
3.03489e-05
1.04411e-05
3.39079e-06
1.19047e-06
6.61386e-07
4.88968e-07
3.70658e-07
2.7304e-07
1.93685e-07
1.31643e-07
8.54442e-08
5.29125e-08
3.13154e-08
1.77755e-08
9.71798e-09
5.13713e-09
2.63399e-09
1.31288e-09
6.39452e-10
3.05488e-10
1.4345e-10
6.62853e-11
3.01723e-11
1.35481e-11
6.00523e-12
2.63155e-12
1.14094e-12
4.89879e-13
2.08555e-13
8.82015e-14
3.71481e-14
1.56808e-14
6.65934e-15
2.95632e-15
1.44298e-15
5.65125e-16
1.92896e-16
3.70477e-17
1
1
1
1
1
1
0.999999
0.999998
0.999995
0.999989
0.999975
0.999947
0.999888
0.999768
0.999528
0.999067
0.998211
0.996674
0.994022
0.989642
0.982745
0.972442
0.957879
0.938431
0.913825
0.884149
0.849848
0.811603
0.770235
0.72668
0.681673
0.635999
0.590347
0.54531
0.501373
0.458921
0.418243
0.379546
0.342963
0.308567
0.276379
0.246382
0.218533
0.19276
0.16897
0.147064
0.126937
0.108482
0.0915951
0.0761736
0.0621249
0.0493698
0.0378521
0.0279571
0.018897
0.0112922
0.00556379
0.0025314
0.00111844
0.000476196
0.000193977
7.50443e-05
2.73623e-05
9.34203e-06
3.02333e-06
1.09453e-06
6.36189e-07
4.75024e-07
3.60076e-07
2.65048e-07
1.87925e-07
1.27728e-07
8.296e-08
5.14505e-08
3.05199e-08
1.73755e-08
9.53252e-09
5.05841e-09
2.60413e-09
1.30354e-09
6.37189e-10
3.05507e-10
1.43852e-10
6.66229e-11
3.03848e-11
1.36664e-11
6.06875e-12
2.66351e-12
1.15644e-12
4.97115e-13
2.11881e-13
8.97045e-14
3.78234e-14
1.59887e-14
6.84589e-15
3.02528e-15
1.50426e-15
6.14236e-16
2.07744e-16
3.76923e-17
1
1
1
1
1
1
0.999999
0.999998
0.999995
0.999988
0.999975
0.999946
0.999887
0.999765
0.999524
0.99906
0.998199
0.996657
0.994
0.989616
0.982722
0.972434
0.957906
0.938506
0.913946
0.884348
0.850156
0.812051
0.770853
0.727356
0.682395
0.636746
0.591098
0.546043
0.502067
0.459558
0.418805
0.380018
0.343334
0.30883
0.276535
0.246438
0.218489
0.192615
0.16873
0.146738
0.126535
0.108016
0.0910746
0.0756114
0.061534
0.0487648
0.0372503
0.0273844
0.0183534
0.0108162
0.00521467
0.00236639
0.00104195
0.000441785
0.000179088
6.89007e-05
2.49671e-05
8.47006e-06
2.73576e-06
1.02087e-06
6.15415e-07
4.62945e-07
3.5097e-07
2.58219e-07
1.82998e-07
1.24343e-07
8.0764e-08
5.01127e-08
2.97559e-08
1.6966e-08
9.32594e-09
4.96013e-09
2.56008e-09
1.28505e-09
6.29677e-10
3.02665e-10
1.42903e-10
6.63598e-11
3.03418e-11
1.36759e-11
6.08287e-12
2.67316e-12
1.16185e-12
4.99875e-13
2.13201e-13
9.03273e-14
3.81276e-14
1.61338e-14
6.95894e-15
3.11563e-15
1.52949e-15
6.23906e-16
2.11197e-16
3.89314e-17
1
1
1
1
1
1
0.999999
0.999998
0.999995
0.999988
0.999975
0.999946
0.999885
0.999763
0.99952
0.999053
0.998189
0.996641
0.993978
0.98959
0.982697
0.972419
0.957919
0.938568
0.914085
0.884573
0.850466
0.812432
0.771262
0.727797
0.682861
0.637224
0.591574
0.5465
0.502489
0.459928
0.419112
0.380252
0.343492
0.308913
0.276542
0.246365
0.218335
0.192386
0.168431
0.146377
0.126119
0.107553
0.0905746
0.0750832
0.060987
0.0482086
0.0367127
0.0268647
0.0178768
0.0104108
0.00493395
0.00223424
0.00098099
0.000414513
0.000167358
6.4092e-05
2.31054e-05
7.7976e-06
2.51655e-06
9.65994e-07
5.99337e-07
4.53294e-07
3.43663e-07
2.52719e-07
1.79005e-07
1.21577e-07
7.89516e-08
4.8996e-08
2.91099e-08
1.66142e-08
9.14478e-09
4.87157e-09
2.51887e-09
1.26681e-09
6.21744e-10
2.9933e-10
1.41555e-10
6.58325e-11
3.01465e-11
1.36072e-11
6.06127e-12
2.66703e-12
1.16045e-12
4.99743e-13
2.13317e-13
9.0439e-14
3.81977e-14
1.6176e-14
7.09649e-15
3.25902e-15
1.46629e-15
5.69952e-16
1.93934e-16
3.72898e-17
1
1
1
1
1
1
0.999999
0.999998
0.999995
0.999988
0.999974
0.999945
0.999885
0.999762
0.999517
0.99905
0.998183
0.996633
0.993967
0.989577
0.982684
0.972412
0.957924
0.938596
0.914146
0.884675
0.850613
0.81262
0.771486
0.728049
0.683132
0.637501
0.591843
0.546748
0.502705
0.460103
0.419239
0.380329
0.343516
0.308878
0.276444
0.246205
0.218116
0.192112
0.168108
0.146009
0.125714
0.107118
0.0901154
0.0746076
0.0605026
0.0477236
0.0362573
0.0264327
0.0174819
0.0100806
0.00472001
0.00213332
0.000934411
0.000393686
0.000158414
6.04341e-05
2.16937e-05
7.28994e-06
2.3527e-06
9.26279e-07
5.87673e-07
4.46131e-07
3.38141e-07
2.4849e-07
1.75876e-07
1.19365e-07
7.7469e-08
4.80589e-08
2.85519e-08
1.63003e-08
8.97711e-09
4.78615e-09
2.4772e-09
1.24731e-09
6.1281e-10
2.95352e-10
1.39827e-10
6.51004e-11
2.98427e-11
1.34838e-11
6.01194e-12
2.64757e-12
1.1529e-12
4.96823e-13
2.12233e-13
9.00567e-14
3.80812e-14
1.61611e-14
7.12846e-15
3.27664e-15
1.4538e-15
5.58802e-16
1.89497e-16
3.67798e-17
1
1
1
1
1
1
0.999999
0.999998
0.999995
0.999988
0.999974
0.999945
0.999884
0.999761
0.999516
0.999047
0.998178
0.996625
0.993956
0.989563
0.98267
0.972401
0.95792
0.938605
0.914173
0.884725
0.850687
0.812718
0.771605
0.728182
0.683271
0.637638
0.59197
0.546856
0.502788
0.460157
0.41926
0.380309
0.343449
0.308763
0.276283
0.245998
0.217867
0.191824
0.167785
0.145657
0.125337
0.106721
0.0897054
0.0741898
0.060083
0.0473087
0.0358746
0.0260737
0.0171582
0.00981641
0.00456081
0.00205794
0.000899527
0.000378061
0.000151698
5.76869e-05
2.0634e-05
6.90962e-06
2.23111e-06
8.98002e-07
5.79633e-07
4.41094e-07
3.34132e-07
2.45325e-07
1.73471e-07
1.17621e-07
7.62739e-08
4.7288e-08
2.80839e-08
1.6032e-08
8.83095e-09
4.71006e-09
2.43918e-09
1.22901e-09
6.04202e-10
2.91398e-10
1.38054e-10
6.43199e-11
2.95058e-11
1.33405e-11
5.95188e-12
2.62278e-12
1.14276e-12
4.92745e-13
2.10573e-13
8.94015e-14
3.7838e-14
1.60873e-14
7.12991e-15
3.28563e-15
1.44196e-15
5.52259e-16
1.87846e-16
3.61438e-17
1
1
1
1
1
1
0.999999
0.999998
0.999995
0.999988
0.999974
0.999945
0.999884
0.99976
0.999514
0.999044
0.998174
0.99662
0.993949
0.989554
0.98266
0.972391
0.957914
0.938605
0.914182
0.884744
0.850718
0.81276
0.771655
0.728237
0.683325
0.637687
0.592009
0.546882
0.502793
0.460134
0.419204
0.380219
0.343323
0.308602
0.276087
0.24577
0.217609
0.191539
0.167477
0.14533
0.124995
0.106368
0.0893458
0.0738282
0.0597239
0.0469572
0.0355551
0.0257766
0.0168937
0.00960559
0.00444279
0.0020018
0.000873456
0.000366352
0.000146654
5.56207e-05
1.98365e-05
6.62358e-06
2.14052e-06
8.77936e-07
5.74271e-07
4.37672e-07
3.31283e-07
2.42986e-07
1.71631e-07
1.16249e-07
7.53096e-08
4.66519e-08
2.76896e-08
1.58012e-08
8.70265e-09
4.64186e-09
2.40434e-09
1.21185e-09
5.95975e-10
2.87542e-10
1.36288e-10
6.35262e-11
2.91555e-11
1.31882e-11
5.8866e-12
2.59504e-12
1.13105e-12
4.87827e-13
2.08569e-13
8.85996e-14
3.75333e-14
1.59843e-14
7.1183e-15
3.28808e-15
1.42807e-15
5.46948e-16
1.85565e-16
3.54129e-17
1
1
1
1
1
1
0.999999
0.999998
0.999995
0.999988
0.999974
0.999945
0.999884
0.999759
0.999513
0.999043
0.998172
0.996615
0.993943
0.989546
0.982649
0.972379
0.957903
0.938596
0.914178
0.884745
0.850724
0.812769
0.771667
0.728248
0.683332
0.637686
0.591994
0.546848
0.502738
0.460055
0.419099
0.380087
0.343165
0.308418
0.275879
0.245539
0.217357
0.191269
0.167193
0.145034
0.12469
0.106058
0.0890344
0.0735183
0.0594191
0.0466614
0.0352894
0.0255311
0.0166774
0.00943635
0.00435361
0.00195927
0.00085366
0.000357444
0.000142812
5.40449e-05
1.92278e-05
6.40542e-06
2.07206e-06
8.6353e-07
5.70725e-07
4.35364e-07
3.29253e-07
2.41244e-07
1.70213e-07
1.15162e-07
7.45282e-08
4.61268e-08
2.73589e-08
1.56048e-08
8.59188e-09
4.58213e-09
2.37338e-09
1.19636e-09
5.88446e-10
2.83965e-10
1.34626e-10
6.27683e-11
2.88162e-11
1.30386e-11
5.82155e-12
2.56713e-12
1.11916e-12
4.82818e-13
2.0649e-13
8.77527e-14
3.72043e-14
1.5867e-14
7.0951e-15
3.28087e-15
1.42293e-15
5.44931e-16
1.83354e-16
3.486e-17
1
1
1
1
1
1
0.999999
0.999998
0.999995
0.999988
0.999974
0.999945
0.999883
0.999759
0.999513
0.999041
0.998169
0.996612
0.993937
0.989538
0.982639
0.972367
0.957888
0.938579
0.91416
0.884727
0.850706
0.81275
0.771644
0.72822
0.683296
0.637639
0.591934
0.546772
0.502644
0.459943
0.418967
0.379936
0.342994
0.308228
0.275672
0.245316
0.217121
0.191022
0.166937
0.144771
0.124424
0.10579
0.0887675
0.073255
0.0591621
0.0464137
0.035069
0.0253287
0.0165003
0.0092995
0.00428435
0.00192623
0.000838278
0.000350523
0.000139826
5.28205e-05
1.87549e-05
6.23613e-06
2.01937e-06
8.52945e-07
5.68332e-07
4.33776e-07
3.27778e-07
2.39924e-07
1.69104e-07
1.14291e-07
7.38907e-08
4.56917e-08
2.70811e-08
1.54378e-08
8.49656e-09
4.53013e-09
2.34611e-09
1.18256e-09
5.81667e-10
2.80713e-10
1.331e-10
6.20658e-11
2.84986e-11
1.28973e-11
5.75957e-12
2.5403e-12
1.10766e-12
4.77943e-13
2.0445e-13
8.69154e-14
3.68735e-14
1.57455e-14
7.07155e-15
3.26971e-15
1.41985e-15
5.43182e-16
1.82561e-16
3.38163e-17
1
1
1
1
1
1
0.999999
0.999998
0.999995
0.999988
0.999974
0.999945
0.999883
0.999759
0.999512
0.99904
0.998168
0.996609
0.993933
0.989531
0.982629
0.972353
0.95787
0.938558
0.914135
0.884698
0.850672
0.812711
0.771599
0.728167
0.683235
0.637566
0.591849
0.546674
0.502532
0.459815
0.418825
0.379779
0.342823
0.308044
0.275476
0.24511
0.216906
0.1908
0.16671
0.144542
0.124193
0.105561
0.088541
0.0730333
0.0589471
0.0462075
0.0348869
0.0251621
0.0163554
0.00918838
0.00422942
0.00190005
0.000826108
0.000345052
0.000137468
5.18545e-05
1.83822e-05
6.10292e-06
1.97823e-06
8.44985e-07
5.6666e-07
4.32647e-07
3.26677e-07
2.38903e-07
1.68225e-07
1.13587e-07
7.33681e-08
4.5331e-08
2.68485e-08
1.52967e-08
8.41533e-09
4.48544e-09
2.32247e-09
1.17049e-09
5.75695e-10
2.77827e-10
1.31736e-10
6.14333e-11
2.82106e-11
1.27683e-11
5.70263e-12
2.51551e-12
1.09698e-12
4.73398e-13
2.0254e-13
8.61262e-14
3.6556e-14
1.56274e-14
7.04892e-15
3.25772e-15
1.41475e-15
5.41042e-16
1.81538e-16
3.3356e-17
1
1
1
1
1
1
0.999999
0.999998
0.999995
0.999988
0.999974
0.999944
0.999883
0.999758
0.999512
0.99904
0.998166
0.996606
0.993929
0.989525
0.98262
0.97234
0.957852
0.938535
0.914106
0.884663
0.850631
0.812663
0.771543
0.728103
0.683161
0.637482
0.591754
0.546567
0.502414
0.459686
0.418684
0.379627
0.342661
0.307873
0.275297
0.244925
0.216716
0.190606
0.166514
0.144345
0.123997
0.105367
0.0883511
0.0728484
0.0587688
0.0460375
0.0347375
0.0250259
0.0162374
0.00909831
0.00418546
0.00187914
0.000816397
0.000340693
0.000135592
5.1087e-05
1.80865e-05
5.99743e-06
1.94588e-06
8.3891e-07
5.65458e-07
4.31819e-07
3.25836e-07
2.38102e-07
1.67522e-07
1.13017e-07
7.294e-08
4.50329e-08
2.66549e-08
1.51784e-08
8.34679e-09
4.44748e-09
2.30226e-09
1.16009e-09
5.70523e-10
2.75314e-10
1.30542e-10
6.08765e-11
2.79559e-11
1.26536e-11
5.65178e-12
2.49327e-12
1.08737e-12
4.69292e-13
2.00809e-13
8.54085e-14
3.62664e-14
1.55199e-14
7.02818e-15
3.24706e-15
1.41e-15
5.39125e-16
1.80795e-16
3.29767e-17
1
1
1
1
1
1
0.999999
0.999998
0.999995
0.999988
0.999974
0.999944
0.999883
0.999758
0.999511
0.999039
0.998165
0.996604
0.993925
0.989519
0.982611
0.972327
0.957835
0.938512
0.914077
0.884627
0.850587
0.812612
0.771484
0.728035
0.683084
0.637397
0.591659
0.546463
0.5023
0.459563
0.418553
0.379488
0.342515
0.307721
0.275139
0.244763
0.216552
0.19044
0.166348
0.144179
0.123834
0.105207
0.0881942
0.0726966
0.058623
0.045899
0.0346163
0.0249158
0.0161422
0.00902591
0.00415038
0.00186247
0.00080867
0.00033723
0.000134104
5.04787e-05
1.78525e-05
5.91408e-06
1.92048e-06
8.34243e-07
5.64571e-07
4.31199e-07
3.25186e-07
2.37471e-07
1.6696e-07
1.12556e-07
7.25914e-08
4.47887e-08
2.64955e-08
1.50805e-08
8.28978e-09
4.41573e-09
2.28526e-09
1.15131e-09
5.66132e-10
2.73172e-10
1.29519e-10
6.03977e-11
2.77361e-11
1.25543e-11
5.60757e-12
2.47388e-12
1.07896e-12
4.65691e-13
1.99286e-13
8.47761e-14
3.60128e-14
1.54255e-14
7.0064e-15
3.23852e-15
1.40712e-15
5.37738e-16
1.80455e-16
3.25453e-17
1
1
1
1
1
1
0.999999
0.999998
0.999995
0.999988
0.999974
0.999944
0.999883
0.999758
0.999511
0.999038
0.998164
0.996602
0.993922
0.989514
0.982603
0.972315
0.957818
0.93849
0.914049
0.884592
0.850546
0.812563
0.771428
0.727971
0.683012
0.637317
0.591571
0.546368
0.502197
0.459453
0.418437
0.379366
0.342388
0.30759
0.275006
0.244627
0.216414
0.190303
0.166211
0.144043
0.1237
0.105076
0.0880676
0.0725745
0.0585062
0.0457884
0.0345199
0.0248283
0.0160668
0.00896874
0.00412279
0.00184938
0.000802608
0.000334516
0.000132939
5.00032e-05
1.76696e-05
5.84907e-06
1.90077e-06
8.30681e-07
5.63914e-07
4.30734e-07
3.24688e-07
2.36978e-07
1.66516e-07
1.12189e-07
7.2312e-08
4.4592e-08
2.63665e-08
1.5001e-08
8.24327e-09
4.38971e-09
2.27126e-09
1.14404e-09
5.62487e-10
2.71386e-10
1.28665e-10
5.99965e-11
2.75513e-11
1.24707e-11
5.57024e-12
2.45748e-12
1.07184e-12
4.62634e-13
1.9799e-13
8.4238e-14
3.57973e-14
1.53451e-14
6.98552e-15
3.23103e-15
1.40449e-15
5.36313e-16
1.7998e-16
3.22314e-17
1
1
1
1
1
1
0.999999
0.999998
0.999995
0.999988
0.999974
0.999944
0.999883
0.999758
0.999511
0.999038
0.998163
0.996601
0.993919
0.98951
0.982596
0.972305
0.957804
0.938471
0.914024
0.884562
0.850509
0.81252
0.771378
0.727915
0.682949
0.637247
0.591496
0.546286
0.50211
0.459361
0.41834
0.379265
0.342284
0.307484
0.274897
0.244518
0.216304
0.190193
0.166102
0.143936
0.123595
0.104974
0.0879689
0.0724796
0.0584157
0.045703
0.0344457
0.0247612
0.016009
0.00892498
0.00410173
0.00183939
0.000797988
0.000332449
0.000132052
4.96414e-05
1.75307e-05
5.7997e-06
1.88586e-06
8.28024e-07
5.63479e-07
4.30412e-07
3.24324e-07
2.3661e-07
1.6618e-07
1.11908e-07
7.20956e-08
4.44385e-08
2.62653e-08
1.49382e-08
8.2063e-09
4.36892e-09
2.26003e-09
1.13818e-09
5.59546e-10
2.69944e-10
1.27973e-10
5.96715e-11
2.74014e-11
1.24027e-11
5.5399e-12
2.44413e-12
1.06603e-12
4.60142e-13
1.96934e-13
8.37986e-14
3.56207e-14
1.52793e-14
6.96897e-15
3.2264e-15
1.40211e-15
5.35325e-16
1.79647e-16
3.20599e-17
1
1
1
1
1
1
0.999999
0.999998
0.999995
0.999988
0.999974
0.999944
0.999883
0.999758
0.99951
0.999037
0.998162
0.9966
0.993917
0.989506
0.982591
0.972298
0.957793
0.938456
0.914005
0.884538
0.85048
0.812485
0.771338
0.72787
0.682899
0.637193
0.591436
0.546222
0.502042
0.45929
0.418266
0.379188
0.342205
0.307403
0.274815
0.244435
0.216222
0.190111
0.166021
0.143857
0.123518
0.104899
0.0878964
0.0724101
0.0583496
0.0456407
0.0343917
0.0247123
0.0159671
0.00889325
0.00408648
0.00183217
0.000794647
0.000330955
0.000131412
4.93804e-05
1.74305e-05
5.76413e-06
1.87514e-06
8.26128e-07
5.63179e-07
4.3019e-07
3.24071e-07
2.36352e-07
1.65942e-07
1.11707e-07
7.19392e-08
4.43257e-08
2.61896e-08
1.48907e-08
8.17813e-09
4.35302e-09
2.25142e-09
1.13369e-09
5.57291e-10
2.68838e-10
1.27443e-10
5.94226e-11
2.72867e-11
1.23507e-11
5.51669e-12
2.43393e-12
1.0616e-12
4.58237e-13
1.96126e-13
8.34632e-14
3.5486e-14
1.52291e-14
6.95574e-15
3.22263e-15
1.39949e-15
5.34252e-16
1.79238e-16
3.19158e-17
1
1
1
1
1
1
0.999999
0.999998
0.999995
0.999988
0.999974
0.999944
0.999883
0.999758
0.99951
0.999037
0.998162
0.996599
0.993916
0.989504
0.982588
0.972292
0.957786
0.938446
0.913991
0.884521
0.850459
0.812461
0.771311
0.727839
0.682865
0.637155
0.591395
0.546179
0.501996
0.459241
0.418215
0.379136
0.342152
0.307349
0.274761
0.24438
0.216167
0.190057
0.165968
0.143805
0.123467
0.10485
0.0878489
0.0723646
0.0583064
0.0456
0.0343564
0.0246805
0.0159398
0.00887261
0.00407657
0.00182747
0.000792478
0.000329986
0.000130996
4.92112e-05
1.73655e-05
5.7411e-06
1.86822e-06
8.24901e-07
5.62982e-07
4.30046e-07
3.2391e-07
2.36189e-07
1.65792e-07
1.11581e-07
7.18405e-08
4.42533e-08
2.61399e-08
1.48589e-08
8.15911e-09
4.34223e-09
2.24557e-09
1.13064e-09
5.55758e-10
2.68087e-10
1.27084e-10
5.92539e-11
2.7209e-11
1.23156e-11
5.50102e-12
2.42704e-12
1.0586e-12
4.56953e-13
1.95582e-13
8.32369e-14
3.53951e-14
1.51951e-14
6.94709e-15
3.22023e-15
1.39799e-15
5.33635e-16
1.79011e-16
3.18292e-17
1
1
1
1
1
1
0.999999
0.999998
0.999995
0.999988
0.999974
0.999944
0.999883
0.999758
0.99951
0.999037
0.998161
0.996598
0.993915
0.989503
0.982586
0.97229
0.957782
0.938441
0.913985
0.884513
0.85045
0.81245
0.771297
0.727824
0.682848
0.637136
0.591375
0.546157
0.501973
0.459218
0.41819
0.37911
0.342126
0.307322
0.274734
0.244353
0.21614
0.19003
0.165941
0.143779
0.123442
0.104826
0.0878256
0.0723424
0.0582853
0.0455802
0.0343392
0.024665
0.0159265
0.00886254
0.00407173
0.00182518
0.000791421
0.000329514
0.000130794
4.91289e-05
1.7334e-05
5.72993e-06
1.86486e-06
8.24301e-07
5.6288e-07
4.29973e-07
3.23832e-07
2.36111e-07
1.65721e-07
1.11522e-07
7.17951e-08
4.422e-08
2.61168e-08
1.4844e-08
8.15014e-09
4.33711e-09
2.24278e-09
1.12918e-09
5.55024e-10
2.67727e-10
1.26911e-10
5.91729e-11
2.71717e-11
1.22987e-11
5.49346e-12
2.42372e-12
1.05716e-12
4.5633e-13
1.95318e-13
8.31267e-14
3.53507e-14
1.51785e-14
6.943e-15
3.21907e-15
1.39743e-15
5.33376e-16
1.78894e-16
3.18286e-17
1
1
1
1
1
1
0.999999
0.999998
0.999995
0.999988
0.999974
0.999944
0.999883
0.999758
0.99951
0.999037
0.998161
0.996598
0.993915
0.989503
0.982586
0.97229
0.957782
0.938441
0.913985
0.884513
0.85045
0.81245
0.771297
0.727824
0.682848
0.637136
0.591375
0.546157
0.501973
0.459218
0.41819
0.37911
0.342126
0.307322
0.274734
0.244353
0.21614
0.19003
0.165941
0.143779
0.123442
0.104826
0.0878256
0.0723424
0.0582852
0.0455802
0.0343392
0.024665
0.0159264
0.00886253
0.00407173
0.00182518
0.00079142
0.000329513
0.000130794
4.91288e-05
1.7334e-05
5.72991e-06
1.86486e-06
8.24299e-07
5.6288e-07
4.29973e-07
3.23831e-07
2.3611e-07
1.65721e-07
1.11522e-07
7.17949e-08
4.42199e-08
2.61167e-08
1.4844e-08
8.15012e-09
4.3371e-09
2.24278e-09
1.12918e-09
5.55023e-10
2.67726e-10
1.26911e-10
5.91728e-11
2.71716e-11
1.22986e-11
5.49344e-12
2.42371e-12
1.05715e-12
4.56329e-13
1.95317e-13
8.31265e-14
3.53506e-14
1.51785e-14
6.94301e-15
3.21909e-15
1.39741e-15
5.33379e-16
1.78901e-16
3.182e-17
1
1
1
1
1
1
0.999999
0.999998
0.999995
0.999988
0.999974
0.999944
0.999883
0.999758
0.99951
0.999037
0.998162
0.996599
0.993916
0.989504
0.982588
0.972292
0.957786
0.938446
0.913992
0.884521
0.85046
0.812462
0.771311
0.727839
0.682865
0.637155
0.591396
0.546179
0.501996
0.459241
0.418215
0.379136
0.342152
0.307349
0.274761
0.24438
0.216167
0.190057
0.165968
0.143805
0.123467
0.10485
0.0878488
0.0723646
0.0583063
0.0456
0.0343564
0.0246804
0.0159397
0.00887257
0.00407655
0.00182746
0.000792474
0.000329984
0.000130995
4.92108e-05
1.73654e-05
5.74104e-06
1.8682e-06
8.24896e-07
5.62979e-07
4.30044e-07
3.23908e-07
2.36187e-07
1.65791e-07
1.1158e-07
7.18401e-08
4.4253e-08
2.61397e-08
1.48588e-08
8.15906e-09
4.3422e-09
2.24556e-09
1.13063e-09
5.55754e-10
2.68085e-10
1.27083e-10
5.92535e-11
2.72088e-11
1.23155e-11
5.50097e-12
2.42702e-12
1.0586e-12
4.56948e-13
1.9558e-13
8.32361e-14
3.53949e-14
1.51951e-14
6.94723e-15
3.22025e-15
1.39798e-15
5.3363e-16
1.78997e-16
3.18463e-17
1
1
1
1
1
1
0.999999
0.999998
0.999995
0.999988
0.999974
0.999944
0.999883
0.999758
0.99951
0.999037
0.998162
0.9966
0.993917
0.989506
0.982591
0.972298
0.957793
0.938456
0.914005
0.884538
0.85048
0.812486
0.771338
0.72787
0.682899
0.637193
0.591436
0.546222
0.502042
0.45929
0.418266
0.379188
0.342205
0.307403
0.274815
0.244435
0.216222
0.190111
0.166021
0.143857
0.123518
0.104899
0.0878963
0.07241
0.0583495
0.0456406
0.0343916
0.0247122
0.015967
0.00889319
0.00408645
0.00183215
0.00079464
0.000330952
0.00013141
4.93798e-05
1.74302e-05
5.76404e-06
1.87511e-06
8.2612e-07
5.63175e-07
4.30187e-07
3.24069e-07
2.3635e-07
1.6594e-07
1.11706e-07
7.19384e-08
4.43252e-08
2.61893e-08
1.48905e-08
8.17804e-09
4.35297e-09
2.2514e-09
1.13368e-09
5.57284e-10
2.68834e-10
1.27442e-10
5.94218e-11
2.72863e-11
1.23506e-11
5.51662e-12
2.4339e-12
1.06158e-12
4.5823e-13
1.96123e-13
8.34619e-14
3.54857e-14
1.52291e-14
6.95601e-15
3.22268e-15
1.39949e-15
5.34255e-16
1.79233e-16
3.19262e-17
1
1
1
1
1
1
0.999999
0.999998
0.999995
0.999988
0.999974
0.999944
0.999883
0.999758
0.999511
0.999038
0.998163
0.996601
0.993919
0.98951
0.982596
0.972306
0.957805
0.938471
0.914025
0.884562
0.850509
0.81252
0.771378
0.727915
0.682949
0.637248
0.591496
0.546286
0.50211
0.459361
0.41834
0.379265
0.342284
0.307484
0.274897
0.244517
0.216304
0.190193
0.166102
0.143936
0.123595
0.104974
0.0879687
0.0724795
0.0584156
0.0457029
0.0344456
0.024761
0.0160089
0.0089249
0.00410169
0.00183937
0.000797978
0.000332444
0.00013205
4.96406e-05
1.75304e-05
5.79959e-06
1.88582e-06
8.28013e-07
5.63473e-07
4.30407e-07
3.2432e-07
2.36607e-07
1.66177e-07
1.11906e-07
7.20944e-08
4.44378e-08
2.62648e-08
1.4938e-08
8.20617e-09
4.36886e-09
2.26e-09
1.13817e-09
5.59537e-10
2.69939e-10
1.27971e-10
5.96704e-11
2.74009e-11
1.24025e-11
5.53979e-12
2.44409e-12
1.06601e-12
4.60131e-13
1.96929e-13
8.37968e-14
3.56203e-14
1.52793e-14
6.96939e-15
3.22656e-15
1.40212e-15
5.35343e-16
1.79653e-16
3.20627e-17
1
1
1
1
1
1
0.999999
0.999998
0.999995
0.999988
0.999974
0.999944
0.999883
0.999758
0.999511
0.999038
0.998164
0.996602
0.993922
0.989514
0.982603
0.972316
0.957819
0.93849
0.914049
0.884593
0.850546
0.812563
0.771428
0.727971
0.683012
0.637317
0.591571
0.546368
0.502197
0.459453
0.418437
0.379366
0.342388
0.30759
0.275005
0.244627
0.216414
0.190303
0.16621
0.144043
0.1237
0.105076
0.0880674
0.0725742
0.058506
0.0457882
0.0345197
0.0248282
0.0160667
0.00896863
0.00412274
0.00184935
0.000802596
0.00033451
0.000132936
5.00021e-05
1.76692e-05
5.84892e-06
1.90072e-06
8.30667e-07
5.63907e-07
4.30728e-07
3.24683e-07
2.36974e-07
1.66513e-07
1.12187e-07
7.23105e-08
4.4591e-08
2.6366e-08
1.50007e-08
8.2431e-09
4.38962e-09
2.27122e-09
1.14401e-09
5.62475e-10
2.7138e-10
1.28662e-10
5.99951e-11
2.75507e-11
1.24703e-11
5.5701e-12
2.45741e-12
1.07181e-12
4.6262e-13
1.97984e-13
8.42356e-14
3.57966e-14
1.53451e-14
6.98602e-15
3.23127e-15
1.40449e-15
5.36343e-16
1.80012e-16
3.22093e-17
1
1
1
1
1
1
0.999999
0.999998
0.999995
0.999988
0.999974
0.999944
0.999883
0.999758
0.999511
0.999039
0.998165
0.996604
0.993925
0.989519
0.982611
0.972327
0.957835
0.938512
0.914077
0.884627
0.850588
0.812612
0.771485
0.728036
0.683084
0.637397
0.591659
0.546463
0.5023
0.459563
0.418553
0.379487
0.342515
0.307721
0.275139
0.244763
0.216551
0.19044
0.166347
0.144179
0.123833
0.105206
0.0881939
0.0726963
0.0586227
0.0458987
0.0346161
0.0249156
0.016142
0.00902578
0.00415031
0.00186244
0.000808655
0.000337222
0.000134101
5.04774e-05
1.78519e-05
5.9139e-06
1.92042e-06
8.34227e-07
5.64563e-07
4.31192e-07
3.2518e-07
2.37466e-07
1.66956e-07
1.12554e-07
7.25896e-08
4.47875e-08
2.64948e-08
1.50801e-08
8.28958e-09
4.41563e-09
2.2852e-09
1.15128e-09
5.66118e-10
2.73164e-10
1.29516e-10
6.0396e-11
2.77353e-11
1.25539e-11
5.6074e-12
2.4738e-12
1.07893e-12
4.65675e-13
1.99278e-13
8.47733e-14
3.6012e-14
1.54255e-14
7.00673e-15
3.2387e-15
1.40707e-15
5.37752e-16
1.80473e-16
3.2534e-17
1
1
1
1
1
1
0.999999
0.999998
0.999995
0.999988
0.999974
0.999944
0.999883
0.999758
0.999512
0.99904
0.998166
0.996606
0.993929
0.989525
0.98262
0.97234
0.957853
0.938535
0.914107
0.884664
0.850631
0.812663
0.771544
0.728103
0.683161
0.637483
0.591754
0.546568
0.502414
0.459686
0.418684
0.379627
0.342661
0.307873
0.275297
0.244924
0.216716
0.190606
0.166514
0.144344
0.123997
0.105367
0.0883507
0.0728481
0.0587685
0.0460372
0.0347372
0.0250257
0.0162372
0.00909815
0.00418539
0.0018791
0.000816379
0.000340684
0.000135588
5.10854e-05
1.80859e-05
5.99721e-06
1.94581e-06
8.3889e-07
5.65448e-07
4.31811e-07
3.25829e-07
2.38097e-07
1.67518e-07
1.13014e-07
7.29379e-08
4.50315e-08
2.66541e-08
1.51779e-08
8.34655e-09
4.44735e-09
2.30219e-09
1.16006e-09
5.70506e-10
2.75306e-10
1.30537e-10
6.08744e-11
2.79549e-11
1.26532e-11
5.65158e-12
2.49318e-12
1.08732e-12
4.69272e-13
2.008e-13
8.54051e-14
3.62658e-14
1.55202e-14
7.0284e-15
3.24717e-15
1.40997e-15
5.39136e-16
1.8081e-16
3.2964e-17
1
1
1
1
1
1
0.999999
0.999998
0.999995
0.999988
0.999974
0.999945
0.999883
0.999759
0.999512
0.99904
0.998168
0.996609
0.993933
0.989531
0.982629
0.972353
0.957871
0.938559
0.914136
0.884699
0.850673
0.812712
0.7716
0.728168
0.683235
0.637567
0.591849
0.546674
0.502532
0.459815
0.418825
0.379778
0.342823
0.308044
0.275475
0.24511
0.216906
0.1908
0.16671
0.144541
0.124193
0.105561
0.0885406
0.0730329
0.0589467
0.0462072
0.0348866
0.0251618
0.0163552
0.0091882
0.00422933
0.00190001
0.000826086
0.000345042
0.000137464
5.18527e-05
1.83815e-05
6.10267e-06
1.97815e-06
8.44963e-07
5.66649e-07
4.32638e-07
3.26669e-07
2.38897e-07
1.6822e-07
1.13584e-07
7.33657e-08
4.53295e-08
2.68476e-08
1.52961e-08
8.41505e-09
4.48529e-09
2.3224e-09
1.17045e-09
5.75675e-10
2.77817e-10
1.31731e-10
6.14309e-11
2.82095e-11
1.27677e-11
5.70239e-12
2.5154e-12
1.09693e-12
4.73375e-13
2.0253e-13
8.61222e-14
3.65551e-14
1.56275e-14
7.04904e-15
3.25776e-15
1.41467e-15
5.41035e-16
1.81538e-16
3.33522e-17
1
1
1
1
1
1
0.999999
0.999998
0.999995
0.999988
0.999974
0.999945
0.999883
0.999759
0.999513
0.999041
0.998169
0.996612
0.993938
0.989538
0.982639
0.972367
0.957888
0.93858
0.914161
0.884728
0.850706
0.81275
0.771645
0.72822
0.683296
0.637639
0.591934
0.546772
0.502644
0.459943
0.418967
0.379935
0.342994
0.308228
0.275671
0.245316
0.217121
0.191022
0.166936
0.14477
0.124423
0.10579
0.0887671
0.0732546
0.0591617
0.0464133
0.0350686
0.0253283
0.0165
0.00929929
0.00428425
0.00192617
0.000838254
0.000350511
0.000139821
5.28184e-05
1.87541e-05
6.23584e-06
2.01928e-06
8.5292e-07
5.68319e-07
4.33766e-07
3.2777e-07
2.39917e-07
1.69099e-07
1.14287e-07
7.3888e-08
4.569e-08
2.70801e-08
1.54372e-08
8.49624e-09
4.52996e-09
2.34603e-09
1.18252e-09
5.81644e-10
2.80702e-10
1.33095e-10
6.20631e-11
2.84973e-11
1.28967e-11
5.75929e-12
2.54018e-12
1.10761e-12
4.77917e-13
2.04438e-13
8.69108e-14
3.68721e-14
1.57454e-14
7.07177e-15
3.26972e-15
1.41976e-15
5.43171e-16
1.8252e-16
3.38184e-17
1
1
1
1
1
1
0.999999
0.999998
0.999995
0.999988
0.999974
0.999945
0.999884
0.999759
0.999513
0.999043
0.998172
0.996616
0.993943
0.989546
0.982649
0.97238
0.957903
0.938596
0.914178
0.884745
0.850724
0.81277
0.771667
0.728248
0.683333
0.637686
0.591994
0.546848
0.502738
0.460055
0.419099
0.380087
0.343165
0.308418
0.275878
0.245538
0.217357
0.191269
0.167192
0.145033
0.12469
0.106058
0.0890339
0.0735178
0.0594186
0.0466609
0.035289
0.0255308
0.0166771
0.00943612
0.00435349
0.00195921
0.000853631
0.000357431
0.000142806
5.40426e-05
1.92269e-05
6.40509e-06
2.07195e-06
8.63501e-07
5.70712e-07
4.35353e-07
3.29244e-07
2.41237e-07
1.70207e-07
1.15158e-07
7.45253e-08
4.61249e-08
2.73577e-08
1.56041e-08
8.59152e-09
4.58194e-09
2.37328e-09
1.19632e-09