/*--------------------------------*- C++ -*----------------------------------*\
  =========                 |
  \\      /  F ield         | OpenFOAM: The Open Source CFD Toolbox
   \\    /   O peration     | Website:  https://openfoam.org
    \\  /    A nd           | Version:  10
     \\/     M anipulation  |
\*---------------------------------------------------------------------------*/
FoamFile
{
    format      ascii;
    class       volScalarField;
    location    "1";
    object      CO2;
}
// * * * * * * * * * * * * * * * * * * * * * * * * * * * * * * * * * * * * * //

dimensions      [0 0 0 0 0 0 0];

internalField   nonuniform List<scalar> 
4000
(
2.66856e-10
1.46624e-09
4.20842e-09
1.04813e-08
2.47797e-08
5.72024e-08
1.3025e-07
2.93533e-07
6.55195e-07
1.4478e-06
3.16374e-06
6.82689e-06
1.45228e-05
3.0399e-05
6.24821e-05
0.000125436
0.000244733
0.00046295
0.000846673
0.00149213
0.00252492
0.00408838
0.00631892
0.00931495
0.0131203
0.0177092
0.0229989
0.028872
0.0351932
0.041824
0.0486335
0.0555076
0.0623559
0.0690936
0.0756261
0.0819067
0.0879005
0.0935832
0.0989401
0.103965
0.108658
0.113025
0.117075
0.120821
0.124277
0.127458
0.130378
0.133052
0.135489
0.137695
0.139662
0.14136
0.142719
0.143566
0.143659
0.142431
0.138786
0.130665
0.118592
0.105354
0.0922417
0.0798295
0.0683488
0.0578727
0.0484116
0.0399778
0.0324572
0.0255799
0.0196115
0.0145422
0.0103636
0.00705524
0.00456695
0.00280573
0.00163838
0.000913175
0.000488494
0.000252224
0.000126109
6.14415e-05
2.93366e-05
1.37578e-05
6.3471e-06
2.88693e-06
1.29596e-06
5.7517e-07
2.5264e-07
1.09938e-07
4.74502e-08
2.03277e-08
8.65186e-09
3.66231e-09
1.54319e-09
6.4831e-10
2.73243e-10
1.14941e-10
5.25672e-11
2.11262e-11
8.51529e-12
1.50832e-12
2.79835e-10
1.53656e-09
4.41948e-09
1.10431e-08
2.62114e-08
6.07571e-08
1.38885e-07
3.14053e-07
7.02829e-07
1.55558e-06
3.40086e-06
7.33278e-06
1.55664e-05
3.24748e-05
6.64501e-05
0.000132468
0.000256439
0.000481032
0.000872141
0.00152397
0.00255845
0.00411426
0.00632404
0.00928765
0.0130462
0.0175756
0.0228036
0.0286212
0.0349001
0.0415055
0.0483074
0.0551956
0.0620566
0.0687738
0.0753105
0.0816099
0.0876307
0.0933448
0.0987349
0.103793
0.108518
0.112915
0.116992
0.120763
0.124242
0.127443
0.13038
0.133068
0.135516
0.13773
0.139701
0.141399
0.142747
0.143563
0.143602
0.14226
0.138393
0.129859
0.117607
0.104308
0.0911949
0.0788133
0.0673806
0.0569633
0.0475715
0.039218
0.0317587
0.0249614
0.0190831
0.0141117
0.0100343
0.00682348
0.00442053
0.00272514
0.00160147
0.000900629
0.000486905
0.000254051
0.000128588
6.32952e-05
3.05209e-05
1.44391e-05
6.71702e-06
3.07495e-06
1.38775e-06
6.18059e-07
2.72037e-07
1.18481e-07
5.11231e-08
2.18743e-08
9.29059e-09
3.92179e-09
1.64757e-09
6.8951e-10
2.90669e-10
1.21669e-10
5.53036e-11
2.26476e-11
8.50821e-12
2.05226e-12
2.93799e-10
1.61095e-09
4.63443e-09
1.15881e-08
2.75278e-08
6.38492e-08
1.45987e-07
3.30014e-07
7.37884e-07
1.6307e-06
3.5576e-06
7.6506e-06
1.61916e-05
3.36658e-05
6.86426e-05
0.000136239
0.000262615
0.000490574
0.000885826
0.00154164
0.00257806
0.00413136
0.00633189
0.00927573
0.0130016
0.0174934
0.0226791
0.0284525
0.0346897
0.0412624
0.0480487
0.0549179
0.0617408
0.0684619
0.0750089
0.0813249
0.0873679
0.0931084
0.0985277
0.103617
0.108373
0.112801
0.116909
0.120709
0.124214
0.127438
0.130395
0.1331
0.135563
0.137787
0.139762
0.141456
0.142786
0.143559
0.14352
0.14201
0.137818
0.128694
0.116202
0.102837
0.0897486
0.077438
0.0661015
0.0557958
0.0465287
0.0383079
0.0309509
0.0242814
0.0185331
0.013689
0.00972987
0.00662109
0.00429824
0.00265901
0.00157009
0.000888117
0.000483333
0.000254079
0.000129378
6.40117e-05
3.10128e-05
1.47535e-05
6.89793e-06
3.1746e-06
1.43963e-06
6.44168e-07
2.84683e-07
1.24408e-07
5.38144e-08
2.30678e-08
9.80828e-09
4.14361e-09
1.74151e-09
7.28341e-10
3.05772e-10
1.29998e-10
6.06806e-11
2.38348e-11
8.71945e-12
1.53864e-12
3.04345e-10
1.66582e-09
4.78931e-09
1.19707e-08
2.84288e-08
6.59179e-08
1.50647e-07
3.4033e-07
7.60295e-07
1.67841e-06
3.65695e-06
7.85244e-06
1.65902e-05
3.44273e-05
7.0027e-05
0.00013858
0.000266326
0.000496019
0.000893074
0.00155017
0.0025863
0.00413602
0.00632761
0.00925688
0.0129635
0.017428
0.0225839
0.0283285
0.0345423
0.0410982
0.0478486
0.0546756
0.0614969
0.0682225
0.074779
0.0811091
0.0871701
0.0929317
0.0983746
0.103489
0.108271
0.112725
0.116859
0.120684
0.124211
0.127455
0.130431
0.133152
0.135627
0.13786
0.139838
0.141526
0.142836
0.143563
0.143432
0.141743
0.13721
0.127491
0.114762
0.101342
0.08829
0.0760646
0.0648389
0.054658
0.0455265
0.037442
0.0301844
0.0236404
0.0180143
0.0132857
0.00943169
0.00641365
0.00416384
0.0025786
0.0015259
0.000865931
0.000473249
0.000250064
0.000128153
6.38405e-05
3.10753e-05
1.48366e-05
6.96334e-06
3.21572e-06
1.46319e-06
6.56673e-07
2.90991e-07
1.27473e-07
5.52634e-08
2.373e-08
1.01061e-08
4.27483e-09
1.79823e-09
7.53019e-10
3.16816e-10
1.36385e-10
6.40882e-11
2.50221e-11
9.04363e-12
1.58418e-12
3.12507e-10
1.70783e-09
4.90789e-09
1.22652e-08
2.91294e-08
6.75486e-08
1.54382e-07
3.48748e-07
7.78935e-07
1.71885e-06
3.74266e-06
8.02932e-06
1.69444e-05
3.51129e-05
7.12707e-05
0.00014072
0.000269789
0.000501216
0.000900207
0.00155885
0.00259509
0.00414212
0.00632715
0.00924355
0.0129314
0.017377
0.022513
0.0282374
0.034427
0.0409419
0.0476719
0.0545001
0.0613234
0.0680534
0.0746176
0.0809589
0.087034
0.0928124
0.0982741
0.103408
0.108212
0.112688
0.116842
0.120684
0.124229
0.12749
0.130481
0.133214
0.1357
0.137938
0.139917
0.141597
0.142885
0.143566
0.143345
0.141484
0.136628
0.12638
0.113447
0.0999849
0.0869744
0.0748332
0.0637136
0.0536507
0.044646
0.0366843
0.0295129
0.0230827
0.0175658
0.0129393
0.00917712
0.00623761
0.00405039
0.00251091
0.00148862
0.00084697
0.000464352
0.000246235
0.000126674
6.33627e-05
3.09506e-05
1.48303e-05
6.97879e-06
3.23041e-06
1.47253e-06
6.62009e-07
2.93854e-07
1.28941e-07
5.59772e-08
2.40668e-08
1.02618e-08
4.34485e-09
1.828e-09
7.68541e-10
3.22779e-10
1.428e-10
6.45184e-11
2.76007e-11
9.26463e-12
1.68397e-12
3.18425e-10
1.73759e-09
4.99082e-09
1.24684e-08
2.96063e-08
6.86418e-08
1.56841e-07
3.54182e-07
7.907e-07
1.74375e-06
3.79401e-06
8.13232e-06
1.71447e-05
3.54894e-05
7.19306e-05
0.000141818
0.000271509
0.000503728
0.000903537
0.00156268
0.00259849
0.00414329
0.00632321
0.00923244
0.0129133
0.0173472
0.0224669
0.0281703
0.0343344
0.0408406
0.0475638
0.0543883
0.0612109
0.0679436
0.0745137
0.0808635
0.0869498
0.0927416
0.0982184
0.103369
0.108188
0.112679
0.116848
0.120705
0.124264
0.127538
0.130539
0.133282
0.135773
0.138015
0.139993
0.141663
0.142929
0.143567
0.143261
0.141241
0.136088
0.125405
0.112308
0.0988195
0.0858511
0.0737867
0.0627607
0.0528004
0.0439052
0.0360466
0.0289443
0.0226104
0.0171847
0.0126428
0.00895664
0.00608222
0.00394743
0.00244708
0.00145163
0.000826889
0.000454102
0.000241302
0.000124435
6.24083e-05
3.05555e-05
1.46762e-05
6.92465e-06
3.21377e-06
1.46872e-06
6.61774e-07
2.94262e-07
1.29291e-07
5.61885e-08
2.41801e-08
1.03178e-08
4.37153e-09
1.84072e-09
7.75724e-10
3.27124e-10
1.42964e-10
6.67444e-11
2.91479e-11
9.58589e-12
1.71396e-12
3.22859e-10
1.75948e-09
5.05153e-09
1.26174e-08
2.99582e-08
6.94557e-08
1.58693e-07
3.58331e-07
7.99826e-07
1.76341e-06
3.83543e-06
8.21729e-06
1.73139e-05
3.58154e-05
7.25194e-05
0.000142827
0.000273135
0.000506161
0.000906853
0.00156665
0.00260234
0.00414548
0.00632131
0.00922316
0.0128926
0.0173135
0.0224204
0.0281132
0.0342732
0.0407746
0.0474941
0.0543167
0.0611397
0.0678752
0.0744505
0.080808
0.0869038
0.0927063
0.0981945
0.103356
0.108187
0.112689
0.11687
0.120739
0.124308
0.127591
0.1306
0.133349
0.135844
0.138088
0.140062
0.141723
0.142966
0.143564
0.14318
0.141013
0.135589
0.124565
0.111347
0.0978445
0.0849178
0.0729253
0.0619734
0.0520973
0.0432928
0.0355175
0.028469
0.0222144
0.0168641
0.0123922
0.00876907
0.0059491
0.00385854
0.00239148
0.00141908
0.000808975
0.00044479
0.000236706
0.000122274
6.14402e-05
3.013e-05
1.44947e-05
6.85014e-06
3.1839e-06
1.45731e-06
6.57521e-07
2.92806e-07
1.28819e-07
5.60538e-08
2.41449e-08
1.03126e-08
4.37285e-09
1.84337e-09
7.7607e-10
3.31555e-10
1.4923e-10
6.55778e-11
2.54651e-11
8.95166e-12
1.57668e-12
3.26118e-10
1.77513e-09
5.09446e-09
1.27218e-08
3.02028e-08
7.00164e-08
1.59956e-07
3.61127e-07
8.0589e-07
1.77627e-06
3.86199e-06
8.27064e-06
1.74177e-05
3.60106e-05
7.28611e-05
0.000143394
0.000274019
0.000507441
0.000908545
0.00156862
0.00260422
0.00414653
0.00632048
0.00921893
0.0128833
0.0172981
0.0223985
0.0280851
0.0342396
0.0407368
0.0474535
0.0542752
0.0610994
0.067838
0.074418
0.0807816
0.0868845
0.0926945
0.0981905
0.103361
0.108201
0.112713
0.116902
0.120779
0.124356
0.127644
0.130659
0.133412
0.13591
0.138153
0.140124
0.141775
0.142996
0.143556
0.1431
0.140798
0.135125
0.123848
0.110543
0.0970362
0.0841442
0.0722032
0.0613234
0.0515199
0.0427906
0.0350821
0.028075
0.0218852
0.0165963
0.0121815
0.00861021
0.00583521
0.00378145
0.00234244
0.00138973
0.000792401
0.000435906
0.000232164
0.000120049
6.03942e-05
2.96487e-05
1.42793e-05
6.75604e-06
3.14374e-06
1.44052e-06
6.50629e-07
2.90024e-07
1.27707e-07
5.56143e-08
2.39737e-08
1.02478e-08
4.34878e-09
1.83463e-09
7.73074e-10
3.32564e-10
1.49625e-10
6.5244e-11
2.51849e-11
8.8626e-12
1.55534e-12
3.28555e-10
1.78656e-09
5.12556e-09
1.27973e-08
3.038e-08
7.04245e-08
1.60881e-07
3.63187e-07
8.10395e-07
1.78592e-06
3.88219e-06
8.31182e-06
1.74992e-05
3.61668e-05
7.3142e-05
0.000143874
0.000274793
0.000508607
0.00091016
0.00157063
0.00260636
0.00414829
0.00632108
0.00921764
0.0128793
0.0172907
0.0223873
0.0280704
0.0342219
0.0407169
0.0474327
0.0542546
0.0610803
0.0678216
0.0744054
0.0807733
0.0868812
0.0926972
0.0982002
0.103378
0.108225
0.112743
0.116939
0.120822
0.124403
0.127696
0.130714
0.133469
0.135968
0.13821
0.140177
0.141818
0.143018
0.143544
0.143021
0.140596
0.134694
0.123238
0.109876
0.0963721
0.0835131
0.0716195
0.0607943
0.0510485
0.0423798
0.0347241
0.0277486
0.0216115
0.0163726
0.0120046
0.00847591
0.00573822
0.00371529
0.00229997
0.00136406
0.000777733
0.000427935
0.000228021
0.00011798
5.9398e-05
2.91803e-05
1.4064e-05
6.6594e-06
3.10112e-06
1.42209e-06
6.42773e-07
2.86727e-07
1.26343e-07
5.50583e-08
2.37527e-08
1.01579e-08
4.31281e-09
1.8206e-09
7.67904e-10
3.31834e-10
1.49806e-10
6.44988e-11
2.48593e-11
8.75096e-12
1.53391e-12
3.30383e-10
1.79489e-09
5.14799e-09
1.28514e-08
3.05064e-08
7.07144e-08
1.61535e-07
3.64637e-07
8.13549e-07
1.79263e-06
3.89613e-06
8.34e-06
1.75545e-05
3.62718e-05
7.33289e-05
0.00014419
0.000275301
0.000509371
0.000911228
0.001572
0.00260791
0.00414975
0.00632205
0.00921762
0.012878
0.0172879
0.0223827
0.0280641
0.0342143
0.0407086
0.0474244
0.0542471
0.0610742
0.0678177
0.0744045
0.0807764
0.0868891
0.0927104
0.0982186
0.103401
0.108254
0.112777
0.116977
0.120864
0.124448
0.127744
0.130764
0.13352
0.136019
0.138259
0.140222
0.141854
0.143035
0.14353
0.142948
0.140412
0.134303
0.122722
0.109323
0.0958266
0.0829969
0.0711431
0.0603624
0.0506633
0.0420436
0.0344297
0.0274785
0.0213841
0.016186
0.0118562
0.00836265
0.00565586
0.00365866
0.00226327
0.00134164
0.000764757
0.000420783
0.000224244
0.000116061
5.84566e-05
2.87304e-05
1.38537e-05
6.56329e-06
3.05798e-06
1.40306e-06
6.34508e-07
2.83185e-07
1.2484e-07
5.44248e-08
2.34858e-08
1.00493e-08
4.26913e-09
1.80352e-09
7.6145e-10
3.30588e-10
1.49547e-10
6.35472e-11
2.43993e-11
8.59943e-12
1.50985e-12
3.31772e-10
1.80108e-09
5.16448e-09
1.2891e-08
3.0599e-08
7.09272e-08
1.62016e-07
3.65708e-07
8.15889e-07
1.79764e-06
3.90661e-06
8.36137e-06
1.75969e-05
3.63534e-05
7.34768e-05
0.000144447
0.000275723
0.000510029
0.000912188
0.00157329
0.00260952
0.00415154
0.00632378
0.00921897
0.0128787
0.0172877
0.0223818
0.0280626
0.0342125
0.0407069
0.0474233
0.0542472
0.0610763
0.0678225
0.0744125
0.0807881
0.0869046
0.0927298
0.098242
0.103428
0.108284
0.112811
0.117014
0.120904
0.12449
0.127788
0.130809
0.133565
0.136063
0.138301
0.14026
0.141884
0.143048
0.143516
0.142883
0.14025
0.133961
0.122289
0.108867
0.0953792
0.0825747
0.0707538
0.0600094
0.0503482
0.0417681
0.0341874
0.0272549
0.0211953
0.0160303
0.0117319
0.00826727
0.00558613
0.00361042
0.00223181
0.00132227
0.000753457
0.000414497
0.000220891
0.000114338
5.76008e-05
2.83168e-05
1.36581e-05
6.4728e-06
3.01685e-06
1.3847e-06
6.26428e-07
2.79679e-07
1.23336e-07
5.37861e-08
2.32174e-08
9.93821e-09
4.2239e-09
1.78557e-09
7.54712e-10
3.28168e-10
1.4938e-10
6.29836e-11
2.42405e-11
8.48256e-12
1.48805e-12
3.32835e-10
1.80573e-09
5.17672e-09
1.29202e-08
3.06673e-08
7.10842e-08
1.62371e-07
3.66498e-07
8.17615e-07
1.80134e-06
3.91435e-06
8.37718e-06
1.76284e-05
3.64141e-05
7.3588e-05
0.000144642
0.00027605
0.000510551
0.00091298
0.00157443
0.00261104
0.00415346
0.00632604
0.00922146
0.0128813
0.0172903
0.0223845
0.0280654
0.0342158
0.040711
0.0474286
0.0542541
0.0610852
0.0678337
0.0744264
0.0808047
0.0869241
0.0927523
0.0982673
0.103457
0.108315
0.112844
0.117049
0.12094
0.124528
0.127827
0.130848
0.133604
0.136101
0.138337
0.140292
0.141909
0.143058
0.143503
0.142827
0.140112
0.13367
0.12193
0.108491
0.0950129
0.0822297
0.0704358
0.0597209
0.0500903
0.0415422
0.0339879
0.02707
0.0210386
0.0159007
0.011628
0.00818718
0.0055273
0.00356952
0.00220498
0.00130565
0.000743692
0.000409023
0.000217947
0.000112812
5.6835e-05
2.79436e-05
1.34802e-05
6.38976e-06
2.97879e-06
1.36756e-06
6.18827e-07
2.76356e-07
1.21902e-07
5.31733e-08
2.29592e-08
9.8306e-09
4.17962e-09
1.76745e-09
7.49786e-10
3.23965e-10
1.50388e-10
6.1922e-11
2.41612e-11
8.27432e-12
1.46011e-12
3.3366e-10
1.80925e-09
5.18596e-09
1.29423e-08
3.07188e-08
7.12029e-08
1.6264e-07
3.67099e-07
8.18933e-07
1.80417e-06
3.92032e-06
8.38947e-06
1.76531e-05
3.64623e-05
7.36776e-05
0.000144802
0.000276326
0.000511005
0.000913692
0.00157549
0.00261255
0.00415549
0.00632864
0.00922465
0.012885
0.0172947
0.0223895
0.0280712
0.0342224
0.0407188
0.0474377
0.0542649
0.0610978
0.0678483
0.074443
0.0808236
0.0869452
0.0927756
0.0982927
0.103484
0.108344
0.112875
0.117081
0.120973
0.124562
0.12786
0.130882
0.133637
0.136133
0.138367
0.140318
0.141929
0.143066
0.143492
0.14278
0.139997
0.133427
0.121635
0.108185
0.0947141
0.0819484
0.0701765
0.0594854
0.0498797
0.0413574
0.033824
0.0269174
0.020909
0.0157931
0.0115415
0.00812026
0.00547796
0.00353507
0.00218228
0.00129153
0.000735351
0.000404321
0.000215402
0.000111483
5.61637e-05
2.76145e-05
1.33223e-05
6.31559e-06
2.94458e-06
1.35206e-06
6.11908e-07
2.73313e-07
1.20581e-07
5.26067e-08
2.27194e-08
9.73016e-09
4.138e-09
1.75033e-09
7.43728e-10
3.22071e-10
1.49848e-10
6.17762e-11
2.40527e-11
8.21338e-12
1.45182e-12
3.34303e-10
1.81193e-09
5.193e-09
1.29591e-08
3.07583e-08
7.12938e-08
1.62847e-07
3.67561e-07
8.19949e-07
1.80636e-06
3.92496e-06
8.39908e-06
1.76725e-05
3.65006e-05
7.37499e-05
0.000144934
0.000276557
0.000511394
0.000914322
0.00157647
0.00261399
0.00415752
0.00633136
0.00922815
0.0128894
0.0172999
0.0223957
0.0280784
0.0342308
0.0407284
0.0474487
0.0542774
0.0611119
0.0678641
0.0744605
0.0808428
0.0869662
0.0927981
0.0983167
0.103509
0.108371
0.112902
0.117109
0.121002
0.124591
0.127889
0.13091
0.133665
0.13616
0.138393
0.140341
0.141946
0.143073
0.143484
0.142741
0.139903
0.133228
0.121395
0.107936
0.0944718
0.0817204
0.0699662
0.0592944
0.0497085
0.0412069
0.0336901
0.0267924
0.0208025
0.0157046
0.01147
0.00806481
0.00543694
0.00350634
0.00216329
0.00127966
0.000728311
0.000400334
0.000213233
0.000110344
5.55853e-05
2.73295e-05
1.3185e-05
6.25075e-06
2.91453e-06
1.33838e-06
6.05777e-07
2.70604e-07
1.19401e-07
5.20984e-08
2.25035e-08
9.63951e-09
4.10039e-09
1.73497e-09
7.37902e-10
3.20561e-10
1.49237e-10
6.16013e-11
2.40561e-11
8.11485e-12
1.43898e-12
3.348e-10
1.81399e-09
5.19842e-09
1.29721e-08
3.07887e-08
7.13643e-08
1.63007e-07
3.67921e-07
8.20744e-07
1.80809e-06
3.92863e-06
8.40674e-06
1.76881e-05
3.65317e-05
7.38093e-05
0.000145044
0.000276753
0.000511731
0.000914879
0.00157735
0.00261533
0.00415945
0.00633402
0.00923165
0.0128938
0.0173053
0.0224022
0.0280861
0.0342396
0.0407385
0.0474601
0.0542901
0.0611261
0.0678796
0.0744775
0.0808611
0.0869857
0.0928188
0.0983385
0.103532
0.108394
0.112926
0.117134
0.121026
0.124615
0.127914
0.130934
0.133689
0.136183
0.138413
0.140359
0.14196
0.143079
0.143476
0.14271
0.139827
0.133068
0.121202
0.107735
0.0942772
0.0815373
0.0697973
0.0591408
0.0495707
0.0410857
0.033582
0.0266912
0.0207162
0.0156325
0.0114118
0.00801947
0.00540329
0.0034827
0.00214761
0.00126984
0.000722468
0.000397011
0.000211418
0.000109388
5.50968e-05
2.70879e-05
1.30681e-05
6.19535e-06
2.88876e-06
1.3266e-06
6.00482e-07
2.68256e-07
1.18375e-07
5.16555e-08
2.23149e-08
9.5602e-09
4.06746e-09
1.72155e-09
7.32755e-10
3.19074e-10
1.48799e-10
6.13769e-11
2.39371e-11
8.08647e-12
1.42907e-12
3.35176e-10
1.81557e-09
5.20257e-09
1.2982e-08
3.08122e-08
7.14188e-08
1.63132e-07
3.68201e-07
8.21365e-07
1.80944e-06
3.93152e-06
8.4128e-06
1.77006e-05
3.65566e-05
7.38575e-05
0.000145134
0.000276916
0.000512017
0.000915359
0.00157812
0.00261652
0.0041612
0.00633647
0.00923493
0.012898
0.0173105
0.0224084
0.0280934
0.0342481
0.0407481
0.0474709
0.0543021
0.0611392
0.0678938
0.0744928
0.0808774
0.0870029
0.0928369
0.0983573
0.103551
0.108414
0.112946
0.117154
0.121047
0.124636
0.127934
0.130954
0.133708
0.136201
0.13843
0.140374
0.141972
0.143083
0.143471
0.142685
0.139767
0.132941
0.12105
0.107578
0.0941238
0.0813929
0.069664
0.0590194
0.0494617
0.0409896
0.0334963
0.0266111
0.0206478
0.0155754
0.0113654
0.00798325
0.00537632
0.00346368
0.00213496
0.00126189
0.000717723
0.000394304
0.000209933
0.000108601
5.46937e-05
2.68878e-05
1.29709e-05
6.1492e-06
2.86723e-06
1.31674e-06
5.96036e-07
2.66281e-07
1.1751e-07
5.12814e-08
2.21554e-08
9.49298e-09
4.03951e-09
1.71019e-09
7.2842e-10
3.17619e-10
1.48445e-10
6.11927e-11
2.38398e-11
8.05323e-12
1.4305e-12
3.35455e-10
1.81675e-09
5.20569e-09
1.29896e-08
3.083e-08
7.14602e-08
1.63227e-07
3.68415e-07
8.2184e-07
1.81048e-06
3.93375e-06
8.4175e-06
1.77103e-05
3.65762e-05
7.38957e-05
0.000145206
0.000277048
0.00051225
0.000915755
0.00157877
0.00261752
0.00416269
0.00633858
0.00923777
0.0129017
0.0173151
0.0224139
0.0280999
0.0342555
0.0407565
0.0474803
0.0543124
0.0611504
0.067906
0.0745057
0.0808911
0.0870173
0.0928518
0.0983727
0.103567
0.10843
0.112963
0.11717
0.121063
0.124652
0.12795
0.130969
0.133722
0.136215
0.138443
0.140385
0.14198
0.143087
0.143467
0.142666
0.139721
0.132844
0.120933
0.107457
0.0940064
0.0812823
0.0695618
0.0589262
0.0493778
0.0409153
0.0334294
0.0265514
0.0205962
0.015532
0.01133
0.00795547
0.00535552
0.00344894
0.00212511
0.00125566
0.000713986
0.00039216
0.000208752
0.000107973
5.43707e-05
2.67272e-05
1.28928e-05
6.11202e-06
2.84986e-06
1.30877e-06
5.92439e-07
2.64681e-07
1.16808e-07
5.09777e-08
2.20257e-08
9.43834e-09
4.01679e-09
1.70089e-09
7.24839e-10
3.16494e-10
1.48112e-10
6.10615e-11
2.37975e-11
8.03595e-12
1.42779e-12
3.3565e-10
1.81759e-09
5.20793e-09
1.2995e-08
3.08429e-08
7.14902e-08
1.63295e-07
3.68571e-07
8.22186e-07
1.81124e-06
3.93539e-06
8.42096e-06
1.77174e-05
3.65908e-05
7.39243e-05
0.000145261
0.000277148
0.000512428
0.00091606
0.00157927
0.00261831
0.00416387
0.00634025
0.00924003
0.0129046
0.0173187
0.0224183
0.028105
0.0342615
0.0407632
0.0474877
0.0543206
0.0611593
0.0679155
0.0745158
0.0809017
0.0870284
0.0928633
0.0983845
0.103579
0.108442
0.112975
0.117183
0.121075
0.124664
0.127961
0.130981
0.133733
0.136225
0.138453
0.140393
0.141987
0.143089
0.143464
0.142652
0.139687
0.132774
0.120849
0.107369
0.0939213
0.0812021
0.0694876
0.0588585
0.0493169
0.0408613
0.0333808
0.0265086
0.0205593
0.015501
0.0113046
0.00793553
0.00534054
0.00343824
0.00211787
0.00125103
0.000711179
0.000390539
0.000207855
0.000107496
5.41246e-05
2.66048e-05
1.28333e-05
6.08368e-06
2.83662e-06
1.3027e-06
5.89699e-07
2.63462e-07
1.16274e-07
5.07464e-08
2.1927e-08
9.39673e-09
3.99949e-09
1.6938e-09
7.22114e-10
3.15648e-10
1.47845e-10
6.09558e-11
2.37636e-11
8.02531e-12
1.42732e-12
3.35772e-10
1.81812e-09
5.20935e-09
1.29985e-08
3.08512e-08
7.15096e-08
1.6334e-07
3.68672e-07
8.22411e-07
1.81173e-06
3.93645e-06
8.42322e-06
1.77221e-05
3.66003e-05
7.39431e-05
0.000145297
0.000277215
0.000512547
0.000916265
0.00157961
0.00261884
0.00416467
0.00634139
0.00924158
0.0129066
0.0173213
0.0224214
0.0281086
0.0342656
0.0407678
0.0474929
0.0543262
0.0611654
0.067922
0.0745227
0.080909
0.0870359
0.0928711
0.0983924
0.103587
0.10845
0.112983
0.117191
0.121083
0.124672
0.127969
0.130988
0.133741
0.136232
0.138459
0.140399
0.141991
0.143091
0.143462
0.142644
0.139665
0.132728
0.120794
0.107313
0.093866
0.0811501
0.0694394
0.0588146
0.0492773
0.0408263
0.0333493
0.026481
0.0205356
0.015481
0.0112884
0.00792284
0.00533103
0.00343143
0.00211321
0.001248
0.000709315
0.000389453
0.000207251
0.000107173
5.39584e-05
2.65221e-05
1.27931e-05
6.06456e-06
2.8277e-06
1.29861e-06
5.87855e-07
2.62642e-07
1.15915e-07
5.05909e-08
2.18606e-08
9.36876e-09
3.98786e-09
1.68904e-09
7.20279e-10
3.15079e-10
1.47672e-10
6.08886e-11
2.37421e-11
8.01876e-12
1.42662e-12
3.35826e-10
1.81836e-09
5.21002e-09
1.30001e-08
3.08551e-08
7.15188e-08
1.63361e-07
3.68719e-07
8.22516e-07
1.81196e-06
3.93695e-06
8.42427e-06
1.77243e-05
3.66047e-05
7.39518e-05
0.000145313
0.000277246
0.000512603
0.00091636
0.00157977
0.00261909
0.00416504
0.00634193
0.00924232
0.0129076
0.0173225
0.0224228
0.0281103
0.0342676
0.0407701
0.0474954
0.054329
0.0611683
0.0679252
0.0745261
0.0809125
0.0870396
0.0928749
0.0983963
0.103591
0.108454
0.112987
0.117195
0.121087
0.124675
0.127973
0.130992
0.133744
0.136235
0.138462
0.140401
0.141993
0.143092
0.143461
0.142639
0.139655
0.132705
0.120767
0.107285
0.0938391
0.0811248
0.0694161
0.0587933
0.0492581
0.0408094
0.0333341
0.0264678
0.0205243
0.0154716
0.0112808
0.00791687
0.00532659
0.00342829
0.00211107
0.0012466
0.000708445
0.000388943
0.000206966
0.00010702
5.38794e-05
2.64827e-05
1.27739e-05
6.05542e-06
2.82343e-06
1.29665e-06
5.86969e-07
2.62247e-07
1.15742e-07
5.05159e-08
2.18285e-08
9.35522e-09
3.98222e-09
1.68673e-09
7.19386e-10
3.148e-10
1.47591e-10
6.08578e-11
2.37321e-11
8.0174e-12
1.42584e-12
3.35818e-10
1.81834e-09
5.20999e-09
1.30001e-08
3.08551e-08
7.15187e-08
1.63361e-07
3.68719e-07
8.22515e-07
1.81196e-06
3.93695e-06
8.42426e-06
1.77243e-05
3.66047e-05
7.39518e-05
0.000145313
0.000277246
0.000512602
0.00091636
0.00157976
0.00261909
0.00416504
0.00634193
0.00924232
0.0129076
0.0173225
0.0224228
0.0281103
0.0342676
0.0407701
0.0474954
0.054329
0.0611683
0.0679252
0.0745261
0.0809125
0.0870396
0.0928749
0.0983963
0.103591
0.108454
0.112987
0.117195
0.121087
0.124675
0.127973
0.130992
0.133744
0.136235
0.138462
0.140401
0.141993
0.143092
0.143461
0.142639
0.139655
0.132705
0.120767
0.107285
0.0938391
0.0811247
0.0694161
0.0587932
0.0492581
0.0408093
0.0333341
0.0264677
0.0205243
0.0154716
0.0112808
0.00791686
0.00532659
0.00342828
0.00211107
0.0012466
0.000708444
0.000388942
0.000206965
0.00010702
5.38793e-05
2.64827e-05
1.27739e-05
6.05541e-06
2.82343e-06
1.29664e-06
5.86968e-07
2.62247e-07
1.15742e-07
5.05158e-08
2.18285e-08
9.35521e-09
3.98222e-09
1.68673e-09
7.19387e-10
3.14803e-10
1.47592e-10
6.0858e-11
2.37322e-11
8.01665e-12
1.4263e-12
3.35749e-10
1.81806e-09
5.20926e-09
1.29984e-08
3.08511e-08
7.15094e-08
1.6334e-07
3.68671e-07
8.22408e-07
1.81173e-06
3.93644e-06
8.42319e-06
1.77221e-05
3.66002e-05
7.39429e-05
0.000145296
0.000277214
0.000512546
0.000916262
0.0015796
0.00261884
0.00416466
0.00634138
0.00924157
0.0129066
0.0173212
0.0224213
0.0281086
0.0342656
0.0407678
0.0474928
0.0543262
0.0611653
0.067922
0.0745227
0.0809089
0.0870359
0.0928711
0.0983924
0.103587
0.10845
0.112983
0.117191
0.121083
0.124672
0.127969
0.130988
0.133741
0.136232
0.138459
0.140399
0.141991
0.143091
0.143462
0.142643
0.139665
0.132728
0.120794
0.107312
0.0938659
0.08115
0.0694394
0.0588145
0.0492772
0.0408262
0.0333492
0.0264809
0.0205356
0.015481
0.0112884
0.00792282
0.00533101
0.00343142
0.00211321
0.001248
0.000709312
0.000389451
0.00020725
0.000107173
5.39582e-05
2.6522e-05
1.2793e-05
6.06453e-06
2.82768e-06
1.2986e-06
5.87851e-07
2.6264e-07
1.15915e-07
5.05906e-08
2.18605e-08
9.36873e-09
3.98786e-09
1.68904e-09
7.20286e-10
3.15087e-10
1.47674e-10
6.08894e-11
2.37422e-11
8.01987e-12
1.42627e-12
3.35613e-10
1.8175e-09
5.20779e-09
1.29948e-08
3.08427e-08
7.14899e-08
1.63295e-07
3.68569e-07
8.22182e-07
1.81123e-06
3.93537e-06
8.42092e-06
1.77173e-05
3.65906e-05
7.39239e-05
0.00014526
0.000277147
0.000512426
0.000916056
0.00157926
0.0026183
0.00416385
0.00634023
0.00924001
0.0129046
0.0173187
0.0224183
0.028105
0.0342614
0.0407632
0.0474877
0.0543205
0.0611592
0.0679154
0.0745158
0.0809017
0.0870284
0.0928633
0.0983845
0.103579
0.108442
0.112975
0.117183
0.121075
0.124664
0.127961
0.130981
0.133733
0.136225
0.138453
0.140393
0.141987
0.143089
0.143464
0.142652
0.139687
0.132773
0.120848
0.107369
0.0939211
0.081202
0.0694875
0.0588584
0.0493168
0.0408612
0.0333807
0.0265085
0.0205593
0.0155009
0.0113046
0.0079355
0.00534051
0.00343822
0.00211786
0.00125103
0.000711174
0.000390536
0.000207853
0.000107495
5.41242e-05
2.66045e-05
1.28332e-05
6.08362e-06
2.8366e-06
1.30268e-06
5.89693e-07
2.63459e-07
1.16273e-07
5.07459e-08
2.19268e-08
9.39667e-09
3.99948e-09
1.69381e-09
7.22125e-10
3.15663e-10
1.47849e-10
6.09579e-11
2.37645e-11
8.02662e-12
1.42686e-12
3.35404e-10
1.81663e-09
5.20551e-09
1.29894e-08
3.08298e-08
7.14599e-08
1.63226e-07
3.68413e-07
8.21835e-07
1.81047e-06
3.93373e-06
8.41745e-06
1.77101e-05
3.6576e-05
7.38952e-05
0.000145205
0.000277047
0.000512247
0.00091575
0.00157876
0.00261751
0.00416267
0.00633856
0.00923774
0.0129017
0.0173151
0.0224139
0.0280998
0.0342555
0.0407564
0.0474802
0.0543124
0.0611504
0.0679059
0.0745057
0.0808911
0.0870173
0.0928518
0.0983727
0.103567
0.10843
0.112962
0.11717
0.121063
0.124652
0.12795
0.130969
0.133722
0.136215
0.138443
0.140385
0.14198
0.143087
0.143467
0.142666
0.13972
0.132844
0.120933
0.107457
0.0940061
0.0812821
0.0695616
0.058926
0.0493777
0.0409152
0.0334293
0.0265513
0.0205961
0.0155319
0.0113299
0.00795542
0.00535548
0.00344891
0.00212509
0.00125565
0.00071398
0.000392156
0.000208749
0.000107972
5.43701e-05
2.67269e-05
1.28927e-05
6.11194e-06
2.84982e-06
1.30875e-06
5.92431e-07
2.64677e-07
1.16807e-07
5.0977e-08
2.20254e-08
9.43825e-09
4.01678e-09
1.7009e-09
7.24853e-10
3.16517e-10
1.48119e-10
6.10644e-11
2.37985e-11
8.03625e-12
1.42795e-12
3.35118e-10
1.81543e-09
5.20236e-09
1.29818e-08
3.08119e-08
7.14183e-08
1.63131e-07
3.68199e-07
8.21359e-07
1.80943e-06
3.93149e-06
8.41273e-06
1.77004e-05
3.65563e-05
7.38569e-05
0.000145133
0.000276914
0.000512013
0.000915353
0.00157811
0.0026165
0.00416118
0.00633644
0.00923489
0.012898
0.0173105
0.0224084
0.0280934
0.034248
0.040748
0.0474708
0.054302
0.0611391
0.0678938
0.0744927
0.0808773
0.0870029
0.0928368
0.0983572
0.103551
0.108414
0.112946
0.117154
0.121047
0.124635
0.127934
0.130954
0.133707
0.136201
0.13843
0.140373
0.141971
0.143083
0.143471
0.142685
0.139767
0.132941
0.121049
0.107577
0.0941235
0.0813926
0.0696637
0.0590192
0.0494615
0.0409895
0.0334961
0.026611
0.0206476
0.0155753
0.0113653
0.00798318
0.00537627
0.00346365
0.00213494
0.00126188
0.000717714
0.000394298
0.00020993
0.0001086
5.46929e-05
2.68874e-05
1.29707e-05
6.14909e-06
2.86718e-06
1.31672e-06
5.96024e-07
2.66276e-07
1.17507e-07
5.12804e-08
2.2155e-08
9.49286e-09
4.0395e-09
1.7102e-09
7.28434e-10
3.17647e-10
1.48453e-10
6.11961e-11
2.38432e-11
8.05065e-12
1.42975e-12
3.34741e-10
1.81384e-09
5.19819e-09
1.29718e-08
3.07884e-08
7.13637e-08
1.63006e-07
3.67918e-07
8.20737e-07
1.80807e-06
3.9286e-06
8.40666e-06
1.76879e-05
3.65314e-05
7.38086e-05
0.000145042
0.00027675
0.000511727
0.000914872
0.00157734
0.00261531
0.00415943
0.00633399
0.00923161
0.0128938
0.0173053
0.0224021
0.028086
0.0342396
0.0407384
0.04746
0.0542901
0.061126
0.0678795
0.0744774
0.080861
0.0869856
0.0928187
0.0983384
0.103532
0.108394
0.112926
0.117134
0.121026
0.124615
0.127914
0.130934
0.133688
0.136183
0.138413
0.140359
0.14196
0.143079
0.143476
0.142709
0.139827
0.133068
0.121202
0.107735
0.0942769
0.081537
0.069797
0.0591405
0.0495705
0.0410854
0.0335818
0.0266911
0.020716
0.0156324
0.0114117
0.00801939
0.00540323
0.00348266
0.00214759
0.00126982
0.000722457
0.000397005
0.000211414
0.000109386
5.50958e-05
2.70873e-05
1.30678e-05
6.19521e-06
2.88869e-06
1.32657e-06
6.00467e-07
2.6825e-07
1.18372e-07
5.16543e-08
2.23145e-08
9.56005e-09
4.06744e-09
1.72156e-09
7.32771e-10
3.19093e-10
1.48805e-10
6.13781e-11
2.39444e-11
8.07701e-12
1.43392e-12
3.34248e-10
1.81178e-09
5.19278e-09
1.29588e-08
3.07579e-08
7.12932e-08
1.62845e-07
3.67558e-07
8.19941e-07
1.80635e-06
3.92492e-06
8.399e-06
1.76723e-05
3.65003e-05
7.37492e-05
0.000144933
0.000276554
0.00051139
0.000914314
0.00157646
0.00261397
0.00415749
0.00633133
0.0092281
0.0128893
0.0172998
0.0223956
0.0280784
0.0342307
0.0407283
0.0474486
0.0542773
0.0611118
0.067864
0.0744605
0.0808428
0.0869661
0.092798
0.0983166
0.103509
0.108371
0.112902
0.117109
0.121002
0.124591
0.127889
0.13091
0.133665
0.13616
0.138393
0.14034
0.141946
0.143073
0.143483
0.142741
0.139903
0.133228
0.121395
0.107935
0.0944713
0.08172
0.0699658
0.059294
0.0497082
0.0412067
0.0336899
0.0267922
0.0208023
0.0157044
0.0114699
0.00806472
0.00543686
0.00350629
0.00216325
0.00127964
0.000728298
0.000400326
0.000213228
0.000110342
5.55841e-05
2.73288e-05
1.31846e-05
6.25058e-06
2.91445e-06
1.33834e-06
6.05759e-07
2.70597e-07
1.19397e-07
5.20969e-08
2.25029e-08
9.63934e-09
4.10037e-09
1.73498e-09
7.37923e-10
3.20578e-10
1.49239e-10
6.16035e-11
2.40492e-11
8.12236e-12
1.43567e-12
3.33611e-10
1.80912e-09
5.18575e-09
1.2942e-08
3.07185e-08
7.12022e-08
1.62639e-07
3.67095e-07
8.18924e-07
1.80415e-06
3.92028e-06
8.38938e-06
1.76529e-05
3.64619e-05
7.36769e-05
0.000144801
0.000276323
0.000511
0.000913685
0.00157548
0.00261253
0.00415547
0.00632861
0.0092246
0.012885
0.0172946
0.0223894
0.0280711
0.0342224
0.0407187
0.0474376
0.0542648
0.0610977
0.0678482
0.0744429
0.0808235
0.0869452
0.0927755
0.0982926
0.103484
0.108344
0.112875
0.117081
0.120973
0.124562
0.12786
0.130882
0.133637