/*--------------------------------*- C++ -*----------------------------------*\
  =========                 |
  \\      /  F ield         | OpenFOAM: The Open Source CFD Toolbox
   \\    /   O peration     | Website:  https://openfoam.org
    \\  /    A nd           | Version:  10
     \\/     M anipulation  |
\*---------------------------------------------------------------------------*/
FoamFile
{
    format      ascii;
    class       volScalarField;
    location    "1";
    object      H2O;
}
// * * * * * * * * * * * * * * * * * * * * * * * * * * * * * * * * * * * * * //

dimensions      [0 0 0 0 0 0 0];

internalField   nonuniform List<scalar> 
4000
(
2.18472e-10
1.2004e-09
3.4454e-09
8.58096e-09
2.0287e-08
4.68311e-08
1.06635e-07
2.40313e-07
5.36402e-07
1.1853e-06
2.59012e-06
5.58912e-06
1.18897e-05
2.48874e-05
5.11535e-05
0.000102694
0.000200361
0.000379013
0.000693164
0.0012216
0.00206713
0.00334712
0.00517324
0.00762606
0.0107415
0.0144983
0.018829
0.0236373
0.0288124
0.034241
0.0398158
0.0454436
0.0510502
0.0565663
0.0619144
0.0670563
0.0719634
0.0766157
0.0810014
0.0851151
0.0889571
0.0925322
0.0958482
0.0989151
0.101744
0.104349
0.10674
0.108928
0.110924
0.11273
0.11434
0.11573
0.116843
0.117536
0.117612
0.116607
0.113623
0.106974
0.0970904
0.0862524
0.0755175
0.0653557
0.0559566
0.0473798
0.0396341
0.0327295
0.0265724
0.020942
0.0160557
0.0119056
0.0084846
0.00577606
0.00373892
0.00229703
0.00134132
0.000747609
0.000399926
0.000206494
0.000103244
5.03016e-05
2.40176e-05
1.12634e-05
5.19631e-06
2.3635e-06
1.06099e-06
4.70887e-07
2.06835e-07
9.00051e-08
3.88471e-08
1.66421e-08
7.0832e-09
2.9983e-09
1.2634e-09
5.30766e-10
2.23702e-10
9.41009e-11
4.30363e-11
1.72958e-11
6.97139e-12
1.23485e-12
2.29098e-10
1.25797e-09
3.61819e-09
9.04088e-09
2.1459e-08
4.97413e-08
1.13704e-07
2.57113e-07
5.754e-07
1.27354e-06
2.78426e-06
6.00329e-06
1.27441e-05
2.65868e-05
5.44021e-05
0.000108451
0.000209944
0.000393817
0.000714014
0.00124766
0.00209458
0.00336831
0.00517744
0.00760371
0.0106808
0.014389
0.0186691
0.0234319
0.0285724
0.0339802
0.0395489
0.0451881
0.0508052
0.0563045
0.061656
0.0668133
0.0717425
0.0764206
0.0808334
0.0849743
0.0888425
0.0924422
0.0957807
0.098868
0.101716
0.104336
0.106741
0.108941
0.110946
0.112758
0.114372
0.115762
0.116866
0.117534
0.117566
0.116467
0.113301
0.106315
0.0962839
0.085396
0.0746604
0.0645238
0.0551639
0.0466354
0.0389464
0.0321074
0.0260006
0.0204357
0.0156232
0.0115531
0.00821498
0.00558632
0.00361905
0.00223105
0.00131111
0.000737337
0.000398625
0.000207989
0.000105274
5.18192e-05
2.49872e-05
1.18212e-05
5.49917e-06
2.51743e-06
1.13614e-06
5.05999e-07
2.22715e-07
9.69993e-08
4.18541e-08
1.79083e-08
7.60612e-09
3.21074e-09
1.34885e-09
5.64496e-10
2.37968e-10
9.96092e-11
4.52766e-11
1.85414e-11
6.9656e-12
1.68017e-12
2.4053e-10
1.31887e-09
3.79417e-09
9.48708e-09
2.25368e-08
5.22728e-08
1.19518e-07
2.70179e-07
6.04099e-07
1.33504e-06
2.91257e-06
6.26348e-06
1.32559e-05
2.75619e-05
5.61971e-05
0.000111537
0.000215
0.000401629
0.000725218
0.00126213
0.00211064
0.00338231
0.00518386
0.00759396
0.0106443
0.0143217
0.0185671
0.0232938
0.0284002
0.0337811
0.039337
0.0449608
0.0505466
0.0560492
0.0614091
0.06658
0.0715273
0.076227
0.0806638
0.08483
0.088724
0.0923492
0.0957123
0.0988231
0.101693
0.104332
0.106754
0.108968
0.110984
0.112805
0.114422
0.115808
0.116898
0.11753
0.117499
0.116263
0.112831
0.105361
0.0951335
0.0841922
0.0734764
0.0633978
0.0541167
0.0456796
0.0380926
0.0313623
0.0253393
0.019879
0.0151729
0.0112071
0.00796576
0.00542063
0.00351893
0.00217691
0.00128542
0.000727094
0.0003957
0.000208012
0.000105921
5.24058e-05
2.53899e-05
1.20786e-05
5.64728e-06
2.59902e-06
1.17861e-06
5.27375e-07
2.33067e-07
1.01852e-07
4.40573e-08
1.88854e-08
8.02996e-09
3.39234e-09
1.42576e-09
5.96286e-10
2.50333e-10
1.06429e-10
4.96787e-11
1.95133e-11
7.13854e-12
1.25967e-12
2.49165e-10
1.36379e-09
3.92096e-09
9.80029e-09
2.32744e-08
5.39664e-08
1.23333e-07
2.78625e-07
6.22447e-07
1.3741e-06
2.99391e-06
6.42872e-06
1.35822e-05
2.81853e-05
5.73305e-05
0.000113454
0.000218039
0.000406086
0.000731152
0.00126911
0.00211738
0.00338612
0.00518036
0.00757852
0.0106131
0.0142682
0.0184892
0.0231923
0.0282795
0.0336467
0.0391732
0.0447625
0.050347
0.0558531
0.0612209
0.0664033
0.0713654
0.0760824
0.0805385
0.0847252
0.0886404
0.0922871
0.0956718
0.0988029
0.10169
0.104346
0.106783
0.10901
0.111037
0.112865
0.114484
0.115866
0.116939
0.117534
0.117427
0.116043
0.112332
0.104376
0.0939548
0.0829677
0.0722823
0.0622734
0.053083
0.0447481
0.0372722
0.0306535
0.0247117
0.0193542
0.0147481
0.0108769
0.00772164
0.0052508
0.0034089
0.00211107
0.00124924
0.00070893
0.000387445
0.000204725
0.000104918
5.22657e-05
2.5441e-05
1.21466e-05
5.70083e-06
2.63268e-06
1.1979e-06
5.37612e-07
2.38232e-07
1.04361e-07
4.52437e-08
1.94275e-08
8.2738e-09
3.49976e-09
1.4722e-09
6.1649e-10
2.59374e-10
1.11657e-10
5.24684e-11
2.04854e-11
7.40394e-12
1.29695e-12
2.55847e-10
1.39818e-09
4.01805e-09
1.00414e-08
2.3848e-08
5.53015e-08
1.26391e-07
2.85517e-07
6.37707e-07
1.40721e-06
3.06408e-06
6.57353e-06
1.38722e-05
2.87466e-05
5.83487e-05
0.000115206
0.000220874
0.000410341
0.000736992
0.00127622
0.00212458
0.00339112
0.00517999
0.00756761
0.0105869
0.0142264
0.0184312
0.0231177
0.0281851
0.0335187
0.0390286
0.0446188
0.0502049
0.0557147
0.0610888
0.0662803
0.071254
0.0759847
0.0804561
0.0846595
0.0885923
0.0922565
0.0956573
0.0988033
0.101705
0.104375
0.106824
0.109062
0.111096
0.112929
0.114549
0.115924
0.116979
0.117536
0.117355
0.115832
0.111856
0.103466
0.092878
0.0818568
0.0712052
0.0612653
0.0521618
0.0439234
0.0365513
0.0300331
0.0241619
0.0188976
0.014381
0.0105933
0.00751323
0.00510668
0.00331602
0.00205566
0.00121872
0.000693407
0.000380161
0.000201591
0.000103707
5.18745e-05
2.5339e-05
1.21415e-05
5.71347e-06
2.64471e-06
1.20555e-06
5.41981e-07
2.40576e-07
1.05563e-07
4.5828e-08
1.97033e-08
8.4012e-09
3.55709e-09
1.49657e-09
6.29198e-10
2.64257e-10
1.16909e-10
5.28206e-11
2.25964e-11
7.58487e-12
1.37865e-12
2.60692e-10
1.42255e-09
4.08594e-09
1.02078e-08
2.42384e-08
5.61964e-08
1.28404e-07
2.89966e-07
6.47339e-07
1.42759e-06
3.10613e-06
6.65786e-06
1.40362e-05
2.90549e-05
5.8889e-05
0.000116105
0.000222282
0.000412398
0.000739718
0.00127935
0.00212736
0.00339207
0.00517676
0.00755852
0.010572
0.014202
0.0183935
0.0230628
0.0281093
0.0334358
0.0389401
0.0445272
0.0501129
0.0556248
0.0610037
0.0662023
0.071185
0.0759267
0.0804105
0.0846271
0.0885729
0.0922493
0.0956623
0.0988205
0.101734
0.104414
0.106871
0.109117
0.111156
0.112992
0.114611
0.115978
0.117015
0.117537
0.117287
0.115633
0.111414
0.102668
0.0919459
0.0809027
0.0702855
0.0604085
0.0513816
0.0432272
0.0359448
0.029511
0.0236965
0.0185109
0.014069
0.0103506
0.00733272
0.00497946
0.00323172
0.0020034
0.00118844
0.000676967
0.000371769
0.000197552
0.000101873
5.10932e-05
2.50155e-05
1.20153e-05
5.66915e-06
2.63109e-06
1.20242e-06
5.41789e-07
2.40909e-07
1.05849e-07
4.60011e-08
1.97961e-08
8.44706e-09
3.57893e-09
1.50698e-09
6.35079e-10
2.67814e-10
1.17044e-10
5.4643e-11
2.38631e-11
7.84788e-12
1.4032e-12
2.64322e-10
1.44047e-09
4.13564e-09
1.03298e-08
2.45265e-08
5.68627e-08
1.29921e-07
2.93362e-07
6.54811e-07
1.44369e-06
3.14004e-06
6.72742e-06
1.41747e-05
2.93218e-05
5.9371e-05
0.000116931
0.000223613
0.000414389
0.000742433
0.0012826
0.00213052
0.00339387
0.0051752
0.00755092
0.0105551
0.0141744
0.0183554
0.023016
0.0280591
0.0333818
0.038883
0.0444686
0.0500545
0.0555688
0.0609519
0.0661568
0.0711474
0.0758978
0.080391
0.0846167
0.0885716
0.0922578
0.0956806
0.098848
0.10177
0.104457
0.106921
0.109171
0.111215
0.113051
0.114668
0.116028
0.117045
0.117535
0.11722
0.115447
0.111006
0.10198
0.0911586
0.0801044
0.0695214
0.0597033
0.0507371
0.0426516
0.0354435
0.0290779
0.0233073
0.0181868
0.0138065
0.0101453
0.00717916
0.00487048
0.00315895
0.00195789
0.00116179
0.0006623
0.000364145
0.000193789
0.000100105
5.03006e-05
2.46672e-05
1.18667e-05
5.60815e-06
2.60663e-06
1.19309e-06
5.38307e-07
2.39718e-07
1.05463e-07
4.58908e-08
1.97672e-08
8.44288e-09
3.58002e-09
1.50915e-09
6.35362e-10
2.71441e-10
1.22174e-10
5.3688e-11
2.08481e-11
7.32864e-12
1.29082e-12
2.6699e-10
1.45329e-09
4.17079e-09
1.04152e-08
2.47267e-08
5.73218e-08
1.30955e-07
2.95651e-07
6.59775e-07
1.45422e-06
3.16178e-06
6.7711e-06
1.42597e-05
2.94815e-05
5.96507e-05
0.000117395
0.000224337
0.000415437
0.000743818
0.00128422
0.00213205
0.00339473
0.00517452
0.00754746
0.0105475
0.0141618
0.0183374
0.022993
0.0280317
0.0333508
0.0388498
0.0444346
0.0500216
0.0555384
0.0609254
0.0661352
0.0711315
0.0758882
0.0803877
0.0846206
0.0885832
0.0922769
0.0957068
0.0988809
0.101809
0.104501
0.10697
0.109223
0.111268
0.113104
0.114718
0.11607
0.117069
0.117528
0.117154
0.11527
0.110626
0.101393
0.0905009
0.0794427
0.0688881
0.0591121
0.050205
0.0421789
0.0350323
0.0287214
0.0229847
0.0179172
0.0135872
0.00997291
0.00704911
0.00477723
0.00309584
0.00191773
0.00113776
0.000648732
0.000356873
0.00019007
9.82834e-05
4.94442e-05
2.42732e-05
1.16903e-05
5.53111e-06
2.57375e-06
1.17934e-06
5.32664e-07
2.3744e-07
1.04553e-07
4.5531e-08
1.9627e-08
8.38977e-09
3.56031e-09
1.50199e-09
6.32909e-10
2.72267e-10
1.22497e-10
5.34147e-11
2.06187e-11
7.25573e-12
1.27334e-12
2.68985e-10
1.46264e-09
4.19625e-09
1.04771e-08
2.48719e-08
5.76559e-08
1.31712e-07
2.97338e-07
6.63464e-07
1.46212e-06
3.17832e-06
6.80481e-06
1.43265e-05
2.96094e-05
5.98807e-05
0.000117788
0.00022497
0.000416392
0.00074514
0.00128586
0.00213381
0.00339617
0.00517501
0.0075464
0.0105442
0.0141557
0.0183283
0.022981
0.0280172
0.0333346
0.0388327
0.0444178
0.0500059
0.055525
0.060915
0.0661284
0.0711288
0.0758904
0.0803956
0.0846343
0.0886027
0.0923019
0.095737
0.0989157
0.101848
0.104544
0.107015
0.10927
0.111316
0.113151
0.114761
0.116105
0.117088
0.117518
0.11709
0.115104
0.110272
0.100894
0.0899545
0.078899
0.0683714
0.0586343
0.0497718
0.0417929
0.034696
0.0284283
0.0227175
0.0176931
0.0134041
0.00982805
0.00693915
0.00469783
0.00304168
0.00188296
0.00111675
0.000636723
0.000350347
0.000186678
9.65892e-05
4.86286e-05
2.38897e-05
1.1514e-05
5.45199e-06
2.53886e-06
1.16425e-06
5.26233e-07
2.34741e-07
1.03436e-07
4.50757e-08
1.94461e-08
8.31621e-09
3.53086e-09
1.49051e-09
6.28676e-10
2.7167e-10
1.22645e-10
5.28046e-11
2.03521e-11
7.16433e-12
1.2558e-12
2.70481e-10
1.46946e-09
4.21461e-09
1.05213e-08
2.49753e-08
5.78933e-08
1.32247e-07
2.98525e-07
6.66046e-07
1.46761e-06
3.18973e-06
6.82788e-06
1.43718e-05
2.96954e-05
6.00337e-05
0.000118047
0.000225386
0.000417018
0.000746015
0.00128698
0.00213507
0.00339737
0.00517581
0.00754639
0.0105431
0.0141534
0.0183246
0.0229759
0.028011
0.0333278
0.038826
0.0444117
0.0500009
0.0555217
0.0609143
0.066131
0.0711354
0.0759012
0.0804107
0.0846537
0.0886263
0.0923295
0.0957681
0.0989501
0.101885
0.104583
0.107056
0.109312
0.111357
0.113191
0.114798
0.116135
0.117101
0.117507
0.117031
0.114954
0.109953
0.100471
0.0895018
0.0784524
0.0679488
0.0582442
0.0494182
0.0414776
0.0344208
0.0281873
0.0224964
0.017507
0.0132513
0.00970661
0.00684643
0.00463041
0.00299531
0.00185292
0.00109839
0.0006261
0.000344491
0.000183587
9.50182e-05
4.78579e-05
2.35213e-05
1.13419e-05
5.37331e-06
2.50354e-06
1.14868e-06
5.19466e-07
2.31841e-07
1.02205e-07
4.45571e-08
1.92276e-08
8.22726e-09
3.4951e-09
1.47653e-09
6.23393e-10
2.7065e-10
1.22433e-10
5.20255e-11
1.99755e-11
7.04028e-12
1.2361e-12
2.71619e-10
1.47453e-09
4.22811e-09
1.05537e-08
2.50511e-08
5.80674e-08
1.32641e-07
2.99402e-07
6.67961e-07
1.47171e-06
3.19831e-06
6.84538e-06
1.44065e-05
2.97622e-05
6.01548e-05
0.000118257
0.000225732
0.000417556
0.0007468
0.00128804
0.00213639
0.00339883
0.00517723
0.00754749
0.0105437
0.0141533
0.0183238
0.0229746
0.0280095
0.0333264
0.038825
0.0444117
0.0500027
0.0555257
0.0609209
0.0661405
0.071148
0.0759171
0.0804298
0.084676
0.0886515
0.0923575
0.0957986
0.0989826
0.101919
0.104619
0.107092
0.109348
0.111394
0.113226
0.114829
0.116159
0.117112
0.117495
0.116977
0.114822
0.109672
0.100117
0.0891281
0.0780861
0.0676032
0.0579255
0.0491292
0.0412196
0.0341952
0.0279889
0.0223133
0.0173524
0.0131239
0.00960484
0.00676834
0.00457331
0.00295582
0.00182716
0.00108253
0.000616849
0.000339345
0.000180842
9.36077e-05
4.71572e-05
2.31827e-05
1.11818e-05
5.29922e-06
2.46987e-06
1.13364e-06
5.12851e-07
2.28971e-07
1.00974e-07
4.40342e-08
1.90079e-08
8.13632e-09
3.45807e-09
1.46183e-09
6.17876e-10
2.68668e-10
1.22296e-10
5.15641e-11
1.98455e-11
6.9446e-12
1.21825e-12
2.72489e-10
1.47834e-09
4.23814e-09
1.05777e-08
2.51071e-08
5.8196e-08
1.32932e-07
3.00049e-07
6.69375e-07
1.47474e-06
3.20464e-06
6.85832e-06
1.44322e-05
2.98119e-05
6.02458e-05
0.000118417
0.000226
0.000417984
0.000747448
0.00128897
0.00213764
0.0034004
0.00517907
0.00754953
0.0105458
0.0141554
0.018326
0.0229769
0.0280121
0.0333297
0.0388293
0.0444174
0.05001
0.0555349
0.0609322
0.0661541
0.071164
0.0759355
0.0804506
0.084699
0.0886766
0.0923844
0.0958272
0.0990126
0.10195
0.10465
0.107124
0.10938
0.111425
0.113255
0.114855
0.116179
0.11712
0.117485
0.116931
0.114709
0.109434
0.0998232
0.0888209
0.0777862
0.0673207
0.0576651
0.0488929
0.0410085
0.0340103
0.0278256
0.0221619
0.0172241
0.0130177
0.00951976
0.00670277
0.00452515
0.00292233
0.0018052
0.00106892
0.000608854
0.000334864
0.000178431
9.23578e-05
4.65303e-05
2.28772e-05
1.10361e-05
5.23124e-06
2.43871e-06
1.11961e-06
5.06628e-07
2.2625e-07
9.97999e-08
4.35325e-08
1.87965e-08
8.04823e-09
3.42182e-09
1.44699e-09
6.13843e-10
2.65227e-10
1.23122e-10
5.0695e-11
1.97805e-11
6.77411e-12
1.19538e-12
2.73165e-10
1.48122e-09
4.2457e-09
1.05957e-08
2.51493e-08
5.82932e-08
1.33152e-07
3.0054e-07
6.70453e-07
1.47706e-06
3.20953e-06
6.86838e-06
1.44524e-05
2.98514e-05
6.03192e-05
0.000118548
0.000226225
0.000418355
0.000748032
0.00128984
0.00213887
0.00340207
0.0051812
0.00755214
0.0105489
0.014159
0.0183301
0.0229817
0.0280176
0.0333361
0.0388368
0.0444262
0.0500202
0.0555468
0.0609459
0.0661696
0.0711813
0.0759545
0.0804714
0.0847214
0.0887004
0.0924095
0.0958533
0.0990394
0.101978
0.104678
0.107152
0.109407
0.111451
0.11328
0.114877
0.116196
0.117127
0.117476
0.116892
0.114615
0.109236
0.0995818
0.0885698
0.0775416
0.0670905
0.0574529
0.0487002
0.040836
0.0338589
0.0276914
0.0220371
0.017118
0.0129297
0.00944893
0.00664799
0.00448476
0.00289413
0.00178662
0.00105736
0.000602025
0.000331014
0.000176347
9.12699e-05
4.59807e-05
2.26077e-05
1.09069e-05
5.17052e-06
2.4107e-06
1.10692e-06
5.00964e-07
2.23759e-07
9.87188e-08
4.30687e-08
1.86002e-08
7.966e-09
3.38774e-09
1.43298e-09
6.08883e-10
2.63677e-10
1.22679e-10
5.05756e-11
1.96918e-11
6.72423e-12
1.18859e-12
2.73691e-10
1.48341e-09
4.25146e-09
1.06095e-08
2.51815e-08
5.83676e-08
1.33321e-07
3.00919e-07
6.71285e-07
1.47885e-06
3.21333e-06
6.87626e-06
1.44683e-05
2.98828e-05
6.03784e-05
0.000118656
0.000226414
0.000418674
0.000748547
0.00129064
0.00214005
0.00340372
0.00518343
0.007555
0.0105524
0.0141633
0.0183351
0.0229876
0.0280245
0.033344
0.0388458
0.0444364
0.0500318
0.0555597
0.0609602
0.0661853
0.0711984
0.075973
0.080491
0.0847421
0.0887221
0.092432
0.0958764
0.099063
0.102001
0.104702
0.107175
0.109431
0.111473
0.113301
0.114896
0.11621
0.117133
0.117469
0.116861
0.114537
0.109073
0.0993852
0.0883658
0.0773432
0.0669038
0.0572807
0.0485438
0.0406959
0.0337357
0.0275818
0.0219347
0.0170308
0.0128572
0.00939042
0.00660259
0.00445117
0.00287061
0.00177106
0.00104764
0.000596262
0.00032775
0.000174572
9.0338e-05
4.55072e-05
2.23744e-05
1.07944e-05
5.11743e-06
2.3861e-06
1.09572e-06
4.95944e-07
2.21541e-07
9.77523e-08
4.26525e-08
1.84234e-08
7.89179e-09
3.35695e-09
1.4204e-09
6.04114e-10
2.6244e-10
1.22179e-10
5.04324e-11
1.96945e-11
6.64355e-12
1.17808e-12
2.74098e-10
1.48509e-09
4.2559e-09
1.06201e-08
2.52064e-08
5.84253e-08
1.33453e-07
3.01214e-07
6.71936e-07
1.48027e-06
3.21634e-06
6.88252e-06
1.44811e-05
2.99082e-05
6.0427e-05
0.000118746
0.000226575
0.00041895
0.000749004
0.00129136
0.00214115
0.00340531
0.00518561
0.00755787
0.0105561
0.0141677
0.0183405
0.0229938
0.0280317
0.0333522
0.0388552
0.0444469
0.0500434
0.0555724
0.060974
0.0662003
0.0712144
0.0759899
0.0805088
0.0847607
0.0887413
0.0924516
0.0958963
0.0990831
0.102021
0.104722
0.107195
0.10945
0.111492
0.113318
0.114911
0.116222
0.117137
0.117463
0.116835
0.114475
0.108942
0.0992271
0.088202
0.0771839
0.0667539
0.0571424
0.048418
0.0405831
0.0336365
0.0274933
0.0218519
0.0169601
0.0127982
0.00934272
0.00656547
0.00442363
0.00285126
0.00175823
0.00103961
0.000591478
0.00032503
0.000173086
8.95547e-05
4.51073e-05
2.21766e-05
1.06987e-05
5.07208e-06
2.365e-06
1.08608e-06
4.91609e-07
2.19619e-07
9.69124e-08
4.22899e-08
1.82691e-08
7.82685e-09
3.33e-09
1.40942e-09
5.999e-10
2.61223e-10
1.2182e-10
5.02488e-11
1.95971e-11
6.62032e-12
1.16997e-12
2.74406e-10
1.48639e-09
4.2593e-09
1.06283e-08
2.52257e-08
5.84699e-08
1.33555e-07
3.01443e-07
6.72444e-07
1.48137e-06
3.2187e-06
6.88749e-06
1.44913e-05
2.99286e-05
6.04665e-05
0.00011882
0.000226709
0.000419184
0.000749396
0.001292
0.00214212
0.00340674
0.00518761
0.00756055
0.0105595
0.014172
0.0183456
0.0229998
0.0280386
0.0333601
0.038864
0.0444566
0.0500541
0.0555841
0.0609866
0.0662136
0.0712285
0.0760047
0.0805242
0.0847766
0.0887576
0.0924681
0.095913
0.0990998
0.102038
0.104738
0.107211
0.109465
0.111506
0.113332
0.114923
0.116231
0.117141
0.117458
0.116815
0.114426
0.108838
0.0991024
0.0880729
0.0770583
0.0666357
0.0570333
0.0483186
0.0404939
0.0335579
0.0274231
0.0217863
0.0169041
0.0127514
0.00930474
0.00653581
0.00440154
0.00283569
0.00174788
0.0010331
0.000587594
0.000322813
0.00017187
8.89108e-05
4.47772e-05
2.20128e-05
1.06192e-05
5.0343e-06
2.34737e-06
1.078e-06
4.87969e-07
2.18002e-07
9.62041e-08
4.19836e-08
1.81384e-08
7.77182e-09
3.30711e-09
1.40012e-09
5.96351e-10
2.60032e-10
1.2153e-10
5.0098e-11
1.95174e-11
6.59311e-12
1.17114e-12
2.74634e-10
1.48736e-09
4.26186e-09
1.06344e-08
2.52403e-08
5.85039e-08
1.33632e-07
3.01619e-07
6.72833e-07
1.48222e-06
3.22053e-06
6.89134e-06
1.44992e-05
2.99446e-05
6.04978e-05
0.000118879
0.000226817
0.000419375
0.000749721
0.00129252
0.00214294
0.00340796
0.00518934
0.00756288
0.0105625
0.0141757
0.0183501
0.0230051
0.0280447
0.033367
0.0388717
0.0444651
0.0500633
0.055594
0.0609972
0.0662248
0.0712403
0.076017
0.0805369
0.0847895
0.0887707
0.0924814
0.0959263
0.0991131
0.102051
0.104751
0.107224
0.109477
0.111518
0.113342
0.114932
0.116238
0.117144
0.117455
0.116799
0.114388
0.108758
0.0990069
0.087974
0.0769622
0.0665451
0.0569496
0.0482423
0.0404252
0.033497
0.0273684
0.0217374
0.0168619
0.0127159
0.00927578
0.00651307
0.00438452
0.00282361
0.00173981
0.001028
0.000584534
0.000321058
0.000170903
8.83969e-05
4.45128e-05
2.18813e-05
1.05552e-05
5.00386e-06
2.33316e-06
1.07148e-06
4.85025e-07
2.16692e-07
9.56301e-08
4.1735e-08
1.80323e-08
7.72709e-09
3.28851e-09
1.3925e-09
5.93419e-10
2.59111e-10
1.21258e-10
4.99905e-11
1.94828e-11
6.57896e-12
1.16892e-12
2.74794e-10
1.48804e-09
4.26368e-09
1.06389e-08
2.52508e-08
5.85284e-08
1.33689e-07
3.01746e-07
6.73117e-07
1.48284e-06
3.22187e-06
6.89417e-06
1.45051e-05
2.99565e-05
6.05212e-05
0.000118924
0.000226899
0.00041952
0.00074997
0.00129293
0.00214359
0.00340892
0.00519071
0.00756473
0.0105649
0.0141787
0.0183537
0.0230093
0.0280496
0.0333725
0.0388778
0.0444718
0.0500706
0.0556018
0.0610054
0.0662335
0.0712494
0.0760264
0.0805465
0.0847994
0.0887807
0.0924914
0.0959364
0.099123
0.102061
0.104761
0.107233
0.109486
0.111526
0.11335
0.114939
0.116243
0.117146
0.117452
0.116788
0.114361
0.108701
0.0989377
0.0879024
0.0768925
0.0664795
0.0568889
0.0481869
0.0403753
0.0334528
0.0273285
0.0217024
0.0168317
0.0126905
0.00925502
0.00649675
0.00437225
0.00281485
0.00173388
0.00102421
0.000582236
0.000319731
0.000170169
8.80056e-05
4.43114e-05
2.17811e-05
1.05065e-05
4.98065e-06
2.32232e-06
1.06651e-06
4.82782e-07
2.15694e-07
9.51929e-08
4.15457e-08
1.79514e-08
7.69302e-09
3.27435e-09
1.3867e-09
5.91189e-10
2.58418e-10
1.21039e-10
4.9904e-11
1.9455e-11
6.57025e-12
1.16854e-12
2.74893e-10
1.48848e-09
4.26485e-09
1.06417e-08
2.52576e-08
5.85443e-08
1.33725e-07
3.01828e-07
6.733e-07
1.48325e-06
3.22274e-06
6.89601e-06
1.45089e-05
2.99643e-05
6.05366e-05
0.000118953
0.000226953
0.000419618
0.000750138
0.00129321
0.00214402
0.00340958
0.00519164
0.007566
0.0105665
0.0141808
0.0183562
0.0230123
0.0280529
0.0333763
0.038882
0.0444764
0.0500755
0.0556071
0.0610111
0.0662395
0.0712555
0.0760327
0.080553
0.084806
0.0887874
0.0924981
0.095943
0.0991296
0.102067
0.104767
0.107239
0.109492
0.111532
0.113355
0.114943
0.116247
0.117147
0.117451
0.116781
0.114343
0.108663
0.0988927
0.0878559
0.0768473
0.0664368
0.0568495
0.048151
0.0403429
0.0334241
0.0273027
0.0216798
0.0168123
0.0126742
0.00924174
0.00648636
0.00436446
0.00280928
0.00173007
0.00102173
0.00058071
0.000318842
0.000169674
8.77417e-05
4.41753e-05
2.17134e-05
1.04736e-05
4.965e-06
2.31501e-06
1.06316e-06
4.81271e-07
2.15022e-07
9.48988e-08
4.14183e-08
1.78971e-08
7.67013e-09
3.26483e-09
1.3828e-09
5.89686e-10
2.57953e-10
1.20898e-10
4.98489e-11
1.94375e-11
6.56489e-12
1.16796e-12
2.74938e-10
1.48868e-09
4.26539e-09
1.06431e-08
2.52608e-08
5.85518e-08
1.33742e-07
3.01867e-07
6.73387e-07
1.48344e-06
3.22315e-06
6.89688e-06
1.45107e-05
2.9968e-05
6.05437e-05
0.000118967
0.000226979
0.000419663
0.000750216
0.00129334
0.00214423
0.00340988
0.00519209
0.00756661
0.0105673
0.0141818
0.0183574
0.0230137
0.0280546
0.0333781
0.038884
0.0444787
0.050078
0.0556097
0.0610139
0.0662424
0.0712586
0.0760359
0.0805562
0.0848092
0.0887906
0.0925014
0.0959463
0.0991329
0.102071
0.10477
0.107242
0.109495
0.111535
0.113358
0.114945
0.116248
0.117148
0.11745
0.116777
0.114334
0.108645
0.0988708
0.0878332
0.0768253
0.0664161
0.0568303
0.0481335
0.0403272
0.0334103
0.0272903
0.0216689
0.016803
0.0126664
0.00923547
0.00648147
0.00436083
0.00280671
0.00172831
0.00102058
0.000579998
0.000318424
0.000169441
8.76165e-05
4.41106e-05
2.16812e-05
1.04579e-05
4.95752e-06
2.31152e-06
1.06155e-06
4.80547e-07
2.147e-07
9.47572e-08
4.1357e-08
1.78708e-08
7.65904e-09
3.26021e-09
1.38091e-09
5.88955e-10
2.57724e-10
1.20832e-10
4.98238e-11
1.94293e-11
6.56377e-12
1.16732e-12
2.74931e-10
1.48866e-09
4.26537e-09
1.0643e-08
2.52608e-08
5.85517e-08
1.33742e-07
3.01867e-07
6.73386e-07
1.48344e-06
3.22314e-06
6.89687e-06
1.45107e-05
2.99679e-05
6.05437e-05
0.000118967
0.000226979
0.000419663
0.000750215
0.00129334
0.00214423
0.00340988
0.00519208
0.0075666
0.0105673
0.0141818
0.0183574
0.0230137
0.0280546
0.0333781
0.038884
0.0444786
0.050078
0.0556097
0.0610139
0.0662424
0.0712586
0.0760358
0.0805562
0.0848092
0.0887906
0.0925014
0.0959463
0.0991328
0.102071
0.10477
0.107242
0.109495
0.111535
0.113358
0.114945
0.116248
0.117148
0.11745
0.116777
0.114334
0.108645
0.0988708
0.0878332
0.0768252
0.0664161
0.0568303
0.0481335
0.0403272
0.0334102
0.0272903
0.0216689
0.016803
0.0126664
0.00923546
0.00648147
0.00436083
0.00280671
0.00172831
0.00102058
0.000579997
0.000318423
0.000169441
8.76164e-05
4.41105e-05
2.16811e-05
1.04579e-05
4.95751e-06
2.31151e-06
1.06155e-06
4.80546e-07
2.14699e-07
9.4757e-08
4.13569e-08
1.78708e-08
7.65903e-09
3.26021e-09
1.38091e-09
5.88956e-10
2.57726e-10
1.20832e-10
4.98239e-11
1.94293e-11
6.56316e-12
1.1677e-12
2.74875e-10
1.48843e-09
4.26478e-09
1.06416e-08
2.52575e-08
5.85441e-08
1.33725e-07
3.01827e-07
6.73299e-07
1.48324e-06
3.22273e-06
6.89599e-06
1.45089e-05
2.99642e-05
6.05364e-05
0.000118953
0.000226953
0.000419617
0.000750136
0.00129321
0.00214402
0.00340957
0.00519163
0.00756599
0.0105665
0.0141808
0.0183562
0.0230123
0.0280529
0.0333762
0.038882
0.0444764
0.0500755
0.0556071
0.0610111
0.0662394
0.0712555
0.0760327
0.080553
0.0848059
0.0887874
0.0924981
0.095943
0.0991296
0.102067
0.104767
0.107239
0.109492
0.111532
0.113355
0.114943
0.116247
0.117147
0.117451
0.116781
0.114343
0.108663
0.0988926
0.0878558
0.0768472
0.0664368
0.0568494
0.0481509
0.0403428
0.0334241
0.0273027
0.0216797
0.0168123
0.0126742
0.00924172
0.00648634
0.00436445
0.00280928
0.00173006
0.00102172
0.000580708
0.00031884
0.000169674
8.77413e-05
4.41751e-05
2.17133e-05
1.04735e-05
4.96497e-06
2.315e-06
1.06315e-06
4.81268e-07
2.15021e-07
9.48982e-08
4.14181e-08
1.7897e-08
7.6701e-09
3.26482e-09
1.38281e-09
5.89692e-10
2.57959e-10
1.20899e-10
4.98496e-11
1.94376e-11
6.5658e-12
1.16767e-12
2.74764e-10
1.48797e-09
4.26357e-09
1.06388e-08
2.52507e-08
5.85282e-08
1.33688e-07
3.01744e-07
6.73113e-07
1.48284e-06
3.22185e-06
6.89413e-06
1.4505e-05
2.99564e-05
6.05209e-05
0.000118923
0.000226898
0.000419518
0.000749967
0.00129293
0.00214358
0.00340891
0.00519069
0.00756471
0.0105649
0.0141787
0.0183536
0.0230093
0.0280495
0.0333724
0.0388777
0.0444718
0.0500705
0.0556018
0.0610054
0.0662335
0.0712494
0.0760264
0.0805465
0.0847993
0.0887807
0.0924914
0.0959363
0.099123
0.102061
0.104761
0.107233
0.109486
0.111526
0.11335
0.114939
0.116243
0.117146
0.117452
0.116788
0.114361
0.1087
0.0989376
0.0879022
0.0768924
0.0664794
0.0568888
0.0481868
0.0403752
0.0334527
0.0273285
0.0217023
0.0168317
0.0126905
0.00925498
0.00649672
0.00437223
0.00281484
0.00173387
0.0010242
0.000582232
0.000319729
0.000170167
8.8005e-05
4.4311e-05
2.17809e-05
1.05064e-05
4.98061e-06
2.3223e-06
1.0665e-06
4.82777e-07
2.15692e-07
9.51919e-08
4.15452e-08
1.79513e-08
7.69297e-09
3.27434e-09
1.38671e-09
5.91197e-10
2.5843e-10
1.21043e-10
4.99057e-11
1.94558e-11
6.57132e-12
1.16816e-12
2.74592e-10
1.48726e-09
4.26171e-09
1.06343e-08
2.52401e-08
5.85036e-08
1.33632e-07
3.01617e-07
6.72829e-07
1.48221e-06
3.22051e-06
6.89129e-06
1.44991e-05
2.99444e-05
6.04974e-05
0.000118878
0.000226816
0.000419372
0.000749716
0.00129252
0.00214293
0.00340795
0.00518932
0.00756286
0.0105625
0.0141757
0.01835
0.0230051
0.0280447
0.0333669
0.0388716
0.044465
0.0500633
0.055594
0.0609971
0.0662248
0.0712403
0.076017
0.0805368
0.0847895
0.0887707
0.0924814
0.0959263
0.0991131
0.102051
0.104751
0.107224
0.109477
0.111518
0.113342
0.114932
0.116238
0.117144
0.117455
0.116799
0.114388
0.108758
0.0990067
0.0879738
0.076962
0.0665449
0.0569494
0.0482422
0.0404251
0.0334969
0.0273683
0.0217373
0.0168619
0.0127159
0.00927573
0.00651303
0.00438449
0.00282359
0.00173979
0.00102799
0.000584529
0.000321055
0.000170901
8.83959e-05
4.45124e-05
2.18811e-05
1.05551e-05
5.00379e-06
2.33312e-06
1.07146e-06
4.85018e-07
2.16689e-07
9.56287e-08
4.17344e-08
1.8032e-08
7.72702e-09
3.2885e-09
1.39251e-09
5.93431e-10
2.5913e-10
1.21264e-10
4.99929e-11
1.94837e-11
6.57921e-12
1.16905e-12
2.74358e-10
1.48627e-09
4.25912e-09
1.06281e-08
2.52254e-08
5.84696e-08
1.33554e-07
3.01441e-07
6.72439e-07
1.48136e-06
3.21868e-06
6.88743e-06
1.44912e-05
2.99284e-05
6.0466e-05
0.000118819
0.000226707
0.000419181
0.000749391
0.00129199
0.00214211
0.00340672
0.00518759
0.00756052
0.0105595
0.0141719
0.0183455
0.0229998
0.0280386
0.03336
0.0388639
0.0444566
0.050054
0.055584
0.0609865
0.0662136
0.0712285
0.0760047
0.0805242
0.0847765
0.0887575
0.0924681
0.0959129
0.0990997
0.102038
0.104738
0.107211
0.109465
0.111506
0.113332
0.114922
0.116231
0.117141
0.117458
0.116815
0.114426
0.108837
0.0991021
0.0880726
0.0770581
0.0666354
0.0570331
0.0483185
0.0404937
0.0335577
0.027423
0.0217862
0.016904
0.0127513
0.00930468
0.00653576
0.00440151
0.00283566
0.00174786
0.00103309
0.000587586
0.000322809
0.000171868
8.89096e-05
4.47766e-05
2.20124e-05
1.0619e-05
5.03421e-06
2.34733e-06
1.07798e-06
4.8796e-07
2.17998e-07
9.62023e-08
4.19828e-08
1.81381e-08
7.77172e-09
3.3071e-09
1.40013e-09
5.96362e-10
2.60055e-10
1.21537e-10
5.01007e-11
1.95202e-11
6.591e-12
1.17052e-12
2.7405e-10
1.48497e-09
4.25571e-09
1.06199e-08
2.52062e-08
5.84248e-08
1.33452e-07
3.01211e-07
6.7193e-07
1.48025e-06
3.21631e-06
6.88246e-06
1.4481e-05
2.99079e-05
6.04265e-05
0.000118745
0.000226573
0.000418947
0.000748998
0.00129135
0.00214113
0.00340529
0.00518558
0.00755784
0.010556
0.0141677
0.0183404
0.0229938
0.0280316
0.0333522
0.0388551
0.0444468
0.0500433
0.0555724
0.060974
0.0662002
0.0712144
0.0759899
0.0805088
0.0847606
0.0887412
0.0924515
0.0958963
0.099083
0.102021
0.104722
0.107195
0.10945
0.111491
0.113318
0.11491
0.116222
0.117137
0.117463
0.116835
0.114475
0.108941
0.0992268
0.0882017
0.0771836
0.0667536
0.0571422
0.0484178
0.0405829
0.0336363
0.0274931
0.0218518
0.01696
0.0127981
0.00934264
0.0065654
0.00442358
0.00285122
0.00175821
0.00103959
0.000591469
0.000325024
0.000173083
8.95531e-05
4.51065e-05
2.21761e-05
1.06985e-05
5.07197e-06
2.36495e-06
1.08605e-06
4.91597e-07
2.19614e-07
9.69101e-08
4.22889e-08
1.82687e-08
7.82673e-09
3.32998e-09
1.40942e-09
5.99913e-10
2.61239e-10
1.21825e-10
5.02497e-11
1.96031e-11
6.61258e-12
1.17394e-12
2.73646e-10
1.48329e-09
4.25128e-09
1.06093e-08
2.51812e-08
5.83671e-08
1.3332e-07
3.00916e-07
6.71279e-07
1.47884e-06
3.2133e-06
6.87619e-06
1.44682e-05
2.98825e-05
6.03778e-05
0.000118655
0.000226412
0.00041867
0.000748541
0.00129063
0.00214004
0.0034037
0.0051834
0.00755496
0.0105524
0.0141632
0.0183351
0.0229875
0.0280244
0.0333439
0.0388458
0.0444363
0.0500317
0.0555597
0.0609601
0.0661853
0.0711984
0.0759729
0.080491
0.0847421
0.0887221
0.0924319
0.0958763
0.0990629
0.102001
0.104702
0.107175
0.10943
0.111473
0.113301
0.114895
0.11621
0.117133
0.117469
0.116861
0.114537
0.109073
0.0993848
0.0883655
0.0773428
0.0669034
0.0572804
0.0485435
0.0406957
0.0337355
0.0275816
0.0219346
0.0170307
0.0128571
0.00939032
0.00660251
0.00445111
0.00287057
0.00177103
0.00104763
0.000596251
0.000327743
0.000174568
9.03361e-05
4.55062e-05
2.23739e-05
1.07942e-05
5.1173e-06
2.38604e-06
1.09569e-06
4.9593e-07
2.21535e-07
9.77496e-08
4.26513e-08
1.8423e-08
7.89164e-09
3.35693e-09
1.42041e-09
6.04131e-10
2.62455e-10
1.22181e-10
5.04343e-11
1.96888e-11
6.6497e-12
1.17537e-12
2.73124e-10
1.48111e-09
4.24553e-09
1.05955e-08
2.51489e-08
5.82926e-08
1.33151e-07
3.00538e-07
6.70446e-07
1.47704e-06
3.20949e-06
6.86831e-06
1.44523e-05
2.98511e-05
6.03186e-05
0.000118547
0.000226223
0.000418351
0.000748026
0.00128983
0.00213886
0.00340204
0.00518117
0.0075521
0.0105488
0.0141589
0.01833
0.0229816
0.0280175