/*--------------------------------*- C++ -*----------------------------------*\
  =========                 |
  \\      /  F ield         | OpenFOAM: The Open Source CFD Toolbox
   \\    /   O peration     | Website:  https://openfoam.org
    \\  /    A nd           | Version:  10
     \\/     M anipulation  |
\*---------------------------------------------------------------------------*/
FoamFile
{
    format      ascii;
    class       volScalarField;
    location    "1";
    object      N2;
}
// * * * * * * * * * * * * * * * * * * * * * * * * * * * * * * * * * * * * * //

dimensions      [0 0 0 0 0 0 0];

internalField   nonuniform List<scalar> 
4000
(
1.26833e-09
6.96259e-09
2.00005e-08
4.98616e-08
1.17991e-07
2.72613e-07
6.21258e-07
1.40124e-06
3.13034e-06
6.92318e-06
1.51419e-05
3.27033e-05
6.96326e-05
0.000145888
0.000300136
0.000603104
0.00117779
0.00223006
0.00408228
0.007201
0.0121961
0.0197651
0.0305733
0.0451029
0.0635719
0.0858586
0.111565
0.140122
0.170872
0.203142
0.236294
0.269772
0.303135
0.335969
0.367811
0.398434
0.427665
0.455386
0.481523
0.506045
0.528954
0.550277
0.570061
0.588368
0.605268
0.620837
0.635157
0.648304
0.660359
0.6714
0.681499
0.690727
0.699152
0.706622
0.713391
0.7198
0.725629
0.730916
0.735722
0.740091
0.744063
0.74767
0.750939
0.753894
0.756548
0.758909
0.76101
0.762928
0.76459
0.765999
0.767157
0.768072
0.768757
0.76924
0.769558
0.769755
0.76987
0.769933
0.769967
0.769984
0.769992
0.769996
0.769998
0.769999
0.77
0.77
0.77
0.77
0.77
0.77
0.77
0.77
0.77
0.77
0.77
0.77
0.77
0.77
0.77
0.77
1.33233e-09
7.29391e-09
2.09995e-08
5.25345e-08
1.24819e-07
2.89585e-07
6.62518e-07
1.49935e-06
3.35825e-06
7.43922e-06
1.62781e-05
3.51293e-05
7.46412e-05
0.000155859
0.000319213
0.000636939
0.00123416
0.0023172
0.0042051
0.00735461
0.012358
0.0198899
0.0305975
0.0449698
0.0632115
0.0852093
0.110615
0.138902
0.169445
0.201591
0.234706
0.268252
0.301677
0.334411
0.366274
0.396988
0.426351
0.454225
0.480524
0.505208
0.528273
0.549742
0.569661
0.58809
0.605098
0.620767
0.63517
0.648388
0.660504
0.671594
0.681735
0.690999
0.699457
0.706924
0.713723
0.720148
0.725978
0.73126
0.736055
0.740411
0.744369
0.74796
0.751213
0.754149
0.756784
0.759122
0.761205
0.763101
0.764738
0.766119
0.767249
0.768136
0.768798
0.769262
0.769569
0.769759
0.76987
0.769933
0.769966
0.769983
0.769992
0.769996
0.769998
0.769999
0.77
0.77
0.77
0.77
0.77
0.77
0.77
0.77
0.77
0.77
0.77
0.77
0.77
0.77
0.77
0.77
1.40108e-09
7.6445e-09
2.20168e-08
5.51271e-08
1.31095e-07
3.04345e-07
6.96446e-07
1.57566e-06
3.52595e-06
7.79881e-06
1.7029e-05
3.66532e-05
7.76413e-05
0.00016158
0.000329753
0.00065508
0.0012639
0.0023632
0.00427113
0.00743995
0.0124527
0.0199725
0.0306353
0.0449117
0.0629945
0.0848095
0.11001
0.138081
0.168422
0.200408
0.233447
0.266901
0.30014
0.332893
0.364806
0.395601
0.425072
0.453074
0.479516
0.504351
0.527569
0.549191
0.569256
0.587826
0.604967
0.620748
0.635252
0.64856
0.660751
0.671903
0.682092
0.691388
0.699858
0.707277
0.714304
0.720696
0.726503
0.73176
0.736531
0.740862
0.744791
0.748353
0.751575
0.754478
0.757077
0.759377
0.761431
0.763291
0.764891
0.766237
0.767334
0.768192
0.768832
0.76928
0.769577
0.769762
0.769871
0.769933
0.769966
0.769983
0.769992
0.769996
0.769998
0.769999
0.77
0.77
0.77
0.77
0.77
0.77
0.77
0.77
0.77
0.77
0.77
0.77
0.77
0.77
0.77
0.77
1.4536e-09
7.90264e-09
2.27488e-08
5.69461e-08
1.3539e-07
3.14221e-07
7.18715e-07
1.62498e-06
3.63316e-06
8.02723e-06
1.75049e-05
3.76208e-05
7.9554e-05
0.000165236
0.000336407
0.000666341
0.00128177
0.00238943
0.00430606
0.00748106
0.0124924
0.0199949
0.0306143
0.04482
0.0628092
0.0844916
0.109547
0.137478
0.167705
0.19961
0.232474
0.265723
0.298954
0.331728
0.363688
0.394551
0.42411
0.452215
0.478772
0.503729
0.527074
0.548824
0.569019
0.587709
0.604956
0.620838
0.635434
0.648824
0.661085
0.672297
0.682533
0.691868
0.700368
0.707805
0.714847
0.721238
0.727032
0.732269
0.737016
0.741318
0.745217
0.748745
0.751931
0.754798
0.757358
0.759619
0.761646
0.76347
0.765036
0.76635
0.767417
0.76825
0.768869
0.769303
0.769589
0.769768
0.769874
0.769934
0.769966
0.769983
0.769992
0.769996
0.769998
0.769999
0.77
0.77
0.77
0.77
0.77
0.77
0.77
0.77
0.77
0.77
0.77
0.77
0.77
0.77
0.77
0.77
1.49469e-09
8.09987e-09
2.33085e-08
5.83457e-08
1.3873e-07
3.22007e-07
7.36559e-07
1.66523e-06
3.72234e-06
8.22082e-06
1.79156e-05
3.84689e-05
8.12536e-05
0.000168529
0.000342385
0.000676639
0.00129844
0.00241446
0.00434045
0.00752295
0.0125348
0.0200243
0.0306119
0.0447552
0.0626535
0.0842438
0.109202
0.137035
0.167145
0.19885
0.231615
0.26487
0.29811
0.330906
0.362903
0.393821
0.423449
0.451636
0.478284
0.503341
0.52679
0.548645
0.568936
0.587716
0.605053
0.621018
0.635688
0.649143
0.661459
0.672716
0.682989
0.692348
0.700865
0.708301
0.715348
0.721734
0.727515
0.732734
0.737457
0.741732
0.7456
0.749096
0.752249
0.755081
0.757605
0.759832
0.761834
0.763627
0.765162
0.766446
0.767488
0.768299
0.7689
0.769321
0.7696
0.769773
0.769876
0.769935
0.769967
0.769983
0.769992
0.769996
0.769998
0.769999
0.77
0.77
0.77
0.77
0.77
0.77
0.77
0.77
0.77
0.77
0.77
0.77
0.77
0.77
0.77
0.77
1.52496e-09
8.23906e-09
2.36987e-08
5.93107e-08
1.41003e-07
3.27225e-07
7.48311e-07
1.69121e-06
3.77861e-06
8.33997e-06
1.81615e-05
3.89626e-05
8.22143e-05
0.000170336
0.000345555
0.000681915
0.00130672
0.00242655
0.00435648
0.00754138
0.0125512
0.0200298
0.0305927
0.0447012
0.0625654
0.0840988
0.108979
0.13671
0.166695
0.198358
0.23109
0.264326
0.297563
0.330373
0.362398
0.393358
0.42304
0.451292
0.478014
0.50315
0.526678
0.548605
0.568969
0.587823
0.605228
0.621256
0.635982
0.649484
0.66184
0.673129
0.683423
0.692797
0.701317
0.708743
0.715791
0.722169
0.727937
0.733135
0.737835
0.742085
0.745926
0.749394
0.752518
0.75532
0.757813
0.76001
0.761993
0.763759
0.765268
0.766529
0.767549
0.768342
0.768929
0.769339
0.76961
0.769779
0.769879
0.769936
0.769967
0.769984
0.769992
0.769996
0.769998
0.769999
0.77
0.77
0.77
0.77
0.77
0.77
0.77
0.77
0.77
0.77
0.77
0.77
0.77
0.77
0.77
0.77
1.54795e-09
8.34093e-09
2.39836e-08
6.00178e-08
1.42679e-07
3.3111e-07
7.5716e-07
1.71104e-06
3.82225e-06
8.43408e-06
1.83598e-05
3.93697e-05
8.30258e-05
0.000171901
0.000348383
0.000686765
0.00131454
0.00243827
0.00437245
0.00756051
0.0125697
0.0200403
0.0305832
0.0446559
0.0624648
0.0839354
0.108753
0.136432
0.166397
0.198037
0.230751
0.263978
0.297217
0.33004
0.362091
0.393088
0.422817
0.451122
0.4779
0.50309
0.526673
0.548659
0.569082
0.587991
0.605447
0.62152
0.636286
0.649822
0.662206
0.673516
0.683826
0.693209
0.701721
0.709145
0.716182
0.722547
0.728294
0.733474
0.738152
0.742379
0.746193
0.749627
0.752737
0.755517
0.757984
0.760159
0.762126
0.76387
0.765358
0.766599
0.767602
0.768379
0.768953
0.769354
0.769619
0.769784
0.769882
0.769937
0.769968
0.769984
0.769992
0.769996
0.769998
0.769999
0.77
0.77
0.77
0.77
0.77
0.77
0.77
0.77
0.77
0.77
0.77
0.77
0.77
0.77
0.77
0.77
1.56526e-09
8.41352e-09
2.41842e-08
6.05123e-08
1.43844e-07
3.33786e-07
7.63193e-07
1.7244e-06
3.85123e-06
8.49554e-06
1.84869e-05
3.96251e-05
8.35233e-05
0.000172837
0.000350023
0.000689487
0.00131878
0.00244442
0.00438059
0.00757
0.0125787
0.0200453
0.0305791
0.0446353
0.0624197
0.0838606
0.108646
0.136296
0.166234
0.197853
0.230554
0.263776
0.297022
0.32986
0.361934
0.392961
0.422724
0.451066
0.477883
0.503116
0.526745
0.548776
0.569242
0.588191
0.605683
0.621789
0.636582
0.650141
0.662543
0.673865
0.684183
0.693569
0.702065
0.709481
0.71651
0.722863
0.728591
0.733754
0.738416
0.742624
0.746423
0.749846
0.752924
0.75568
0.758126
0.760281
0.762237
0.763962
0.765433
0.766658
0.767646
0.768411
0.768975
0.769368
0.769627
0.769788
0.769884
0.769939
0.769968
0.769984
0.769992
0.769996
0.769998
0.769999
0.77
0.77
0.77
0.77
0.77
0.77
0.77
0.77
0.77
0.77
0.77
0.77
0.77
0.77
0.77
0.77
1.57842e-09
8.46616e-09
2.4329e-08
6.08696e-08
1.44687e-07
3.35733e-07
7.67605e-07
1.73423e-06
3.87276e-06
8.54167e-06
1.85835e-05
3.98222e-05
8.39138e-05
0.000173586
0.00035137
0.000691791
0.0013225
0.00245002
0.00438835
0.00757966
0.012589
0.0200537
0.030582
0.044629
0.0624
0.0838244
0.108592
0.136224
0.166148
0.197757
0.230453
0.263677
0.29693
0.329781
0.361874
0.392922
0.42271
0.451082
0.477932
0.5032
0.526863
0.548928
0.569425
0.588401
0.605919
0.622046
0.636858
0.650431
0.662843
0.674172
0.684492
0.693877
0.702355
0.709762
0.716782
0.723125
0.728836
0.733985
0.738631
0.742823
0.746606
0.750013
0.753074
0.755813
0.758241
0.760381
0.762328
0.764039
0.765496
0.766707
0.767683
0.768438
0.768993
0.76938
0.769634
0.769792
0.769886
0.76994
0.769969
0.769984
0.769992
0.769996
0.769998
0.769999
0.77
0.77
0.77
0.77
0.77
0.77
0.77
0.77
0.77
0.77
0.77
0.77
0.77
0.77
0.77
0.77
1.58847e-09
8.5042e-09
2.44329e-08
6.1125e-08
1.45288e-07
3.37114e-07
7.70724e-07
1.74115e-06
3.8878e-06
8.5737e-06
1.86501e-05
3.99569e-05
8.41783e-05
0.000174088
0.000352265
0.000693309
0.00132494
0.00245369
0.00439348
0.00758621
0.0125965
0.0200607
0.0305866
0.0446289
0.0623939
0.0838108
0.10857
0.136194
0.166112
0.197717
0.230413
0.263641
0.296901
0.329763
0.361871
0.392939
0.422751
0.451148
0.478024
0.503318
0.527006
0.549094
0.569613
0.588609
0.606144
0.622285
0.637108
0.650689
0.663106
0.674437
0.684757
0.694139
0.702597
0.709996
0.717008
0.72334
0.729038
0.734174
0.738807
0.742986
0.746755
0.750148
0.753196
0.755922
0.758336
0.760464
0.762404
0.764102
0.765548
0.766749
0.767715
0.768461
0.769009
0.76939
0.76964
0.769796
0.769888
0.769941
0.76997
0.769985
0.769993
0.769996
0.769998
0.769999
0.77
0.77
0.77
0.77
0.77
0.77
0.77
0.77
0.77
0.77
0.77
0.77
0.77
0.77
0.77
0.77
1.59625e-09
8.53235e-09
2.4509e-08
6.13117e-08
1.45728e-07
3.38128e-07
7.73018e-07
1.74626e-06
3.89896e-06
8.59758e-06
1.87001e-05
4.00589e-05
8.43808e-05
0.000174478
0.000352973
0.000694536
0.00132696
0.00245684
0.00439808
0.00759243
0.0126042
0.0200693
0.0305949
0.0446354
0.062397
0.0838099
0.108565
0.136187
0.166103
0.197709
0.230408
0.263642
0.296912
0.329788
0.361911
0.392997
0.422828
0.451244
0.478139
0.503452
0.527158
0.549263
0.569797
0.588806
0.606352
0.622502
0.63733
0.650915
0.663334
0.674664
0.684982
0.694359
0.702799
0.71019
0.717193
0.723516
0.729203
0.734329
0.738951
0.743119
0.746876
0.750259
0.753296
0.75601
0.758413
0.760532
0.762467
0.764155
0.765591
0.766783
0.767741
0.76848
0.769022
0.769398
0.769645
0.769799
0.76989
0.769942
0.76997
0.769985
0.769993
0.769996
0.769998
0.769999
0.77
0.77
0.77
0.77
0.77
0.77
0.77
0.77
0.77
0.77
0.77
0.77
0.77
0.77
0.77
0.77
1.60228e-09
8.55347e-09
2.45652e-08
6.14495e-08
1.46052e-07
3.38875e-07
7.74708e-07
1.75002e-06
3.90717e-06
8.61517e-06
1.87369e-05
4.01342e-05
8.45308e-05
0.000174768
0.000353503
0.000695468
0.00132852
0.00245934
0.00440187
0.00759786
0.0126115
0.0200785
0.0306058
0.0446474
0.0624096
0.0838228
0.108578
0.136201
0.16612
0.19773
0.230435
0.263677
0.296957
0.329844
0.36198
0.393079
0.422924
0.451355
0.478264
0.503591
0.527309
0.549426
0.569969
0.588987
0.606539
0.622693
0.637525
0.651111
0.66353
0.674858
0.685171
0.694543
0.702966
0.71035
0.717346
0.723661
0.729339
0.734455
0.739068
0.743227
0.746976
0.750349
0.753377
0.756083
0.758477
0.760588
0.762519
0.764199
0.765628
0.766812
0.767764
0.768496
0.769033
0.769406
0.76965
0.769802
0.769892
0.769943
0.76997
0.769985
0.769993
0.769997
0.769998
0.769999
0.77
0.77
0.77
0.77
0.77
0.77
0.77
0.77
0.77
0.77
0.77
0.77
0.77
0.77
0.77
0.77
1.60703e-09
8.56941e-09
2.46074e-08
6.15532e-08
1.46297e-07
3.39439e-07
7.75987e-07
1.75287e-06
3.91343e-06
8.62863e-06
1.87653e-05
4.01927e-05
8.46483e-05
0.000174998
0.000353931
0.000696234
0.00132984
0.00246151
0.00440528
0.00760296
0.0126187
0.0200883
0.0306183
0.0446627
0.0624278
0.0838439
0.108603
0.136229
0.166152
0.197768
0.23048
0.26373
0.297018
0.329915
0.362062
0.393172
0.423028
0.451469
0.478389
0.503725
0.527452
0.549576
0.570126
0.589149
0.606704
0.622861
0.637693
0.651279
0.663695
0.67502
0.68533
0.694697
0.703104
0.710481
0.717471
0.723779
0.72945
0.734559
0.739164
0.743316
0.747057
0.750423
0.753444
0.756142
0.758528
0.760634
0.762561
0.764235
0.765658
0.766837
0.767782
0.76851
0.769043
0.769412
0.769654
0.769804
0.769893
0.769943
0.769971
0.769985
0.769993
0.769997
0.769998
0.769999
0.77
0.77
0.77
0.77
0.77
0.77
0.77
0.77
0.77
0.77
0.77
0.77
0.77
0.77
0.77
0.77
1.61074e-09
8.58151e-09
2.46396e-08
6.16323e-08
1.46483e-07
3.3987e-07
7.76967e-07
1.75506e-06
3.91825e-06
8.63905e-06
1.87873e-05
4.02384e-05
8.47408e-05
0.00017518
0.000354276
0.000696862
0.00133094
0.00246337
0.00440829
0.00760763
0.0126256
0.020098
0.0306314
0.0446796
0.0624488
0.0838693
0.108633
0.136264
0.166193
0.197815
0.230534
0.263791
0.297088
0.329993
0.362148
0.393267
0.423131
0.45158
0.478507
0.50385
0.527583
0.549711
0.570265
0.58929
0.606847
0.623005
0.637837
0.65142
0.663834
0.675156
0.685461
0.694823
0.703218
0.710589
0.717573
0.723875
0.729539
0.734642
0.739241
0.743387
0.747122
0.750482
0.753497
0.75619
0.758571
0.760671
0.762596
0.764265
0.765682
0.766856
0.767798
0.768521
0.769051
0.769417
0.769657
0.769806
0.769894
0.769944
0.769971
0.769985
0.769993
0.769997
0.769998
0.769999
0.77
0.77
0.77
0.77
0.77
0.77
0.77
0.77
0.77
0.77
0.77
0.77
0.77
0.77
0.77
0.77
1.61362e-09
8.5908e-09
2.46644e-08
6.16933e-08
1.46628e-07
3.40204e-07
7.77728e-07
1.75677e-06
3.92201e-06
8.64722e-06
1.88048e-05
4.02748e-05
8.48149e-05
0.000175328
0.000354558
0.000697385
0.00133188
0.00246498
0.00441096
0.00761186
0.012632
0.0201073
0.0306442
0.0446965
0.0624703
0.0838957
0.108665
0.136301
0.166236
0.197864
0.230589
0.263853
0.297157
0.330069
0.362231
0.393356
0.423226
0.451682
0.478614
0.503961
0.527698
0.549829
0.570385
0.589411
0.606969
0.623126
0.637956
0.651538
0.663949
0.675267
0.685568
0.694926
0.70331
0.710676
0.717656
0.723953
0.729612
0.734709
0.739304
0.743444
0.747175
0.75053
0.753541
0.756228
0.758604
0.760701
0.762624
0.764289
0.765702
0.766872
0.76781
0.768531
0.769057
0.769421
0.76966
0.769807
0.769895
0.769944
0.769971
0.769986
0.769993
0.769997
0.769998
0.769999
0.77
0.77
0.77
0.77
0.77
0.77
0.77
0.77
0.77
0.77
0.77
0.77
0.77
0.77
0.77
0.77
1.61579e-09
8.59797e-09
2.46834e-08
6.17402e-08
1.46739e-07
3.40463e-07
7.78318e-07
1.7581e-06
3.92495e-06
8.65362e-06
1.88184e-05
4.03035e-05
8.4874e-05
0.000175447
0.000354788
0.000697816
0.00133266
0.00246635
0.00441326
0.00761557
0.0126378
0.0201157
0.030656
0.0447124
0.0624906
0.0839209
0.108695
0.136337
0.166277
0.197911
0.230642
0.263912
0.297221
0.330138
0.362306
0.393436
0.423311
0.45177
0.478706
0.504056
0.527795
0.549928
0.570485
0.589512
0.607069
0.623225
0.638054
0.651633
0.664042
0.675357
0.685654
0.695008
0.703383
0.710745
0.717721
0.724014
0.729669
0.734762
0.739353
0.743489
0.747216
0.750568
0.753575
0.756259
0.758631
0.760725
0.762646
0.764308
0.765718
0.766885
0.76782
0.768538
0.769062
0.769425
0.769662
0.769809
0.769895
0.769945
0.769972
0.769986
0.769993
0.769997
0.769998
0.769999
0.77
0.77
0.77
0.77
0.77
0.77
0.77
0.77
0.77
0.77
0.77
0.77
0.77
0.77
0.77
0.77
1.61738e-09
8.60333e-09
2.46977e-08
6.17757e-08
1.46823e-07
3.40659e-07
7.78766e-07
1.75911e-06
3.92719e-06
8.65852e-06
1.8829e-05
4.03258e-05
8.49201e-05
0.00017554
0.00035497
0.00069816
0.00133329
0.00246746
0.00441515
0.00761866
0.0126426
0.0201229
0.0306662
0.0447261
0.0625084
0.083943
0.108722
0.136369
0.166314
0.197952
0.230688
0.263962
0.297276
0.330198
0.362369
0.393503
0.423381
0.451844
0.478782
0.504134
0.527874
0.550008
0.570565
0.589592
0.607148
0.623303
0.63813
0.651708
0.664114
0.675426
0.685721
0.695072
0.703439
0.710798
0.717771
0.72406
0.729712
0.734803
0.73939
0.743524
0.747248
0.750597
0.753601
0.756282
0.758652
0.760744
0.762663
0.764321
0.765729
0.766894
0.767827
0.768543
0.769066
0.769427
0.769663
0.76981
0.769896
0.769945
0.769972
0.769986
0.769993
0.769997
0.769998
0.769999
0.77
0.77
0.77
0.77
0.77
0.77
0.77
0.77
0.77
0.77
0.77
0.77
0.77
0.77
0.77
0.77
1.61848e-09
8.60715e-09
2.4708e-08
6.18013e-08
1.46884e-07
3.408e-07
7.79091e-07
1.75984e-06
3.92883e-06
8.6621e-06
1.88367e-05
4.03422e-05
8.49541e-05
0.000175609
0.000355106
0.000698419
0.00133377
0.00246831
0.00441661
0.00762106
0.0126464
0.0201286
0.0306742
0.044737
0.0625225
0.0839607
0.108743
0.136394
0.166343
0.197985
0.230724
0.264002
0.297319
0.330244
0.362419
0.393556
0.423436
0.4519
0.47884
0.504193
0.527934
0.550068
0.570625
0.589652
0.607207
0.623361
0.638187
0.651763
0.664167
0.675477
0.68577
0.695118
0.70348
0.710837
0.717807
0.724094
0.729744
0.734832
0.739417
0.743549
0.747271
0.750618
0.75362
0.756299
0.758667
0.760757
0.762674
0.764331
0.765738
0.766901
0.767833
0.768547
0.769069
0.769429
0.769665
0.76981
0.769896
0.769945
0.769972
0.769986
0.769993
0.769997
0.769998
0.769999
0.77
0.77
0.77
0.77
0.77
0.77
0.77
0.77
0.77
0.77
0.77
0.77
0.77
0.77
0.77
0.77
1.61914e-09
8.60958e-09
2.47145e-08
6.18176e-08
1.46923e-07
3.40891e-07
7.793e-07
1.76031e-06
3.92988e-06
8.66442e-06
1.88417e-05
4.03528e-05
8.49762e-05
0.000175654
0.000355195
0.00069859
0.00133408
0.00246888
0.00441759
0.00762268
0.0126489
0.0201324
0.0306797
0.0447445
0.0625323
0.0839729
0.108758
0.136411
0.166363
0.198007
0.230749
0.26403
0.297349
0.330276
0.362452
0.393591
0.423473
0.451938
0.478879
0.504233
0.527974
0.550109
0.570665
0.589691
0.607246
0.623399
0.638224
0.651799
0.664202
0.67551
0.685801
0.695148
0.703507
0.710862
0.71783
0.724116
0.729764
0.734851
0.739435
0.743565
0.747286
0.750631
0.753632
0.75631
0.758677
0.760766
0.762682
0.764338
0.765743
0.766906
0.767836
0.76855
0.769071
0.769431
0.769665
0.769811
0.769897
0.769945
0.769972
0.769986
0.769993
0.769997
0.769998
0.769999
0.77
0.77
0.77
0.77
0.77
0.77
0.77
0.77
0.77
0.77
0.77
0.77
0.77
0.77
0.77
0.77
1.61943e-09
8.61071e-09
2.47176e-08
6.18254e-08
1.46942e-07
3.40935e-07
7.79399e-07
1.76054e-06
3.93038e-06
8.66551e-06
1.88441e-05
4.03578e-05
8.49866e-05
0.000175675
0.000355237
0.00069867
0.00133423
0.00246914
0.00441805
0.00762344
0.0126501
0.0201342
0.0306823
0.0447481
0.062537
0.0839787
0.108765
0.136419
0.166372
0.198018
0.230761
0.264043
0.297364
0.330292
0.362469
0.393608
0.423491
0.451957
0.478898
0.504252
0.527994
0.550128
0.570685
0.589711
0.607265
0.623418
0.638242
0.651816
0.664219
0.675527
0.685817
0.695163
0.70352
0.710874
0.717842
0.724127
0.729774
0.73486
0.739443
0.743573
0.747293
0.750638
0.753638
0.756316
0.758681
0.76077
0.762686
0.764341
0.765746
0.766908
0.767838
0.768551
0.769072
0.769431
0.769666
0.769811
0.769897
0.769945
0.769972
0.769986
0.769993
0.769997
0.769998
0.769999
0.77
0.77
0.77
0.77
0.77
0.77
0.77
0.77
0.77
0.77
0.77
0.77
0.77
0.77
0.77
0.77
1.61935e-09
8.61063e-09
2.47175e-08
6.18253e-08
1.46942e-07
3.40934e-07
7.79398e-07
1.76053e-06
3.93037e-06
8.6655e-06
1.88441e-05
4.03577e-05
8.49865e-05
0.000175675
0.000355236
0.000698669
0.00133423
0.00246914
0.00441804
0.00762343
0.0126501
0.0201342
0.0306823
0.044748
0.0625369
0.0839787
0.108765
0.136419
0.166372
0.198018
0.230761
0.264043
0.297364
0.330292
0.362469
0.393608
0.423491
0.451957
0.478898
0.504252
0.527994
0.550128
0.570685
0.589711
0.607265
0.623418
0.638242
0.651816
0.664219
0.675527
0.685817
0.695163
0.70352
0.710874
0.717842
0.724127
0.729774
0.73486
0.739443
0.743573
0.747293
0.750638
0.753638
0.756316
0.758681
0.76077
0.762686
0.764341
0.765746
0.766908
0.767838
0.768551
0.769072
0.769431
0.769666
0.769811
0.769897
0.769945
0.769972
0.769986
0.769993
0.769997
0.769998
0.769999
0.77
0.77
0.77
0.77
0.77
0.77
0.77
0.77
0.77
0.77
0.77
0.77
0.77
0.77
0.77
0.77
1.61894e-09
8.60936e-09
2.47142e-08
6.18173e-08
1.46923e-07
3.4089e-07
7.79297e-07
1.7603e-06
3.92986e-06
8.66439e-06
1.88417e-05
4.03527e-05
8.49759e-05
0.000175653
0.000355194
0.000698587
0.00133408
0.00246887
0.00441758
0.00762266
0.0126489
0.0201324
0.0306797
0.0447444
0.0625322
0.0839727
0.108758
0.136411
0.166362
0.198007
0.230749
0.26403
0.297349
0.330276
0.362452
0.393591
0.423473
0.451938
0.478879
0.504233
0.527974
0.550109
0.570665
0.589691
0.607246
0.623399
0.638224
0.651799
0.664202
0.675511
0.685801
0.695148
0.703507
0.710862
0.71783
0.724116
0.729764
0.734851
0.739435
0.743565
0.747286
0.750631
0.753632
0.756311
0.758677
0.760766
0.762682
0.764338
0.765743
0.766906
0.767836
0.76855
0.769071
0.769431
0.769665
0.769811
0.769897
0.769945
0.769972
0.769986
0.769993
0.769997
0.769998
0.769999
0.77
0.77
0.77
0.77
0.77
0.77
0.77
0.77
0.77
0.77
0.77
0.77
0.77
0.77
0.77
0.77
1.61814e-09
8.6068e-09
2.47075e-08
6.18006e-08
1.46883e-07
3.40798e-07
7.79085e-07
1.75983e-06
3.9288e-06
8.66204e-06
1.88366e-05
4.03419e-05
8.49535e-05
0.000175608
0.000355103
0.000698415
0.00133376
0.0024683
0.00441659
0.00762103
0.0126463
0.0201285
0.0306741
0.0447369
0.0625224
0.0839605
0.108743
0.136393
0.166342
0.197985
0.230724
0.264002
0.297319
0.330244
0.362419
0.393556
0.423436
0.4519
0.47884
0.504193
0.527934
0.550069
0.570625
0.589652
0.607207
0.623361
0.638187
0.651763
0.664167
0.675477
0.68577
0.695118
0.70348
0.710837
0.717807
0.724094
0.729744
0.734832
0.739417
0.743549
0.747271
0.750618
0.75362
0.756299
0.758667
0.760757
0.762674
0.764331
0.765738
0.766901
0.767833
0.768547
0.769069
0.769429
0.769665
0.76981
0.769896
0.769945
0.769972
0.769986
0.769993
0.769997
0.769998
0.769999
0.77
0.77
0.77
0.77
0.77
0.77
0.77
0.77
0.77
0.77
0.77
0.77
0.77
0.77
0.77
0.77
1.61691e-09
8.60286e-09
2.46971e-08
6.17748e-08
1.46822e-07
3.40655e-07
7.78758e-07
1.75909e-06
3.92715e-06
8.65843e-06
1.88288e-05
4.03254e-05
8.49193e-05
0.000175538
0.000354967
0.000698154
0.00133328
0.00246744
0.00441512
0.00761862
0.0126425
0.0201228
0.0306661
0.0447259
0.0625082
0.0839428
0.108721
0.136368
0.166313
0.197952
0.230687
0.263962
0.297276
0.330198
0.362369
0.393504
0.423382
0.451844
0.478782
0.504134
0.527875
0.550009
0.570565
0.589592
0.607148
0.623303
0.63813
0.651708
0.664114
0.675426
0.685721
0.695072
0.703439
0.710798
0.717771
0.724061
0.729712
0.734803
0.73939
0.743524
0.747248
0.750597
0.753601
0.756282
0.758652
0.760744
0.762663
0.764321
0.765729
0.766894
0.767827
0.768543
0.769066
0.769427
0.769663
0.76981
0.769896
0.769945
0.769972
0.769986
0.769993
0.769997
0.769998
0.769999
0.77
0.77
0.77
0.77
0.77
0.77
0.77
0.77
0.77
0.77
0.77
0.77
0.77
0.77
0.77
0.77
1.61526e-09
8.5974e-09
2.46826e-08
6.17392e-08
1.46737e-07
3.40458e-07
7.78307e-07
1.75807e-06
3.9249e-06
8.6535e-06
1.88182e-05
4.0303e-05
8.4873e-05
0.000175445
0.000354784
0.000697809
0.00133265
0.00246632
0.00441322
0.00761551
0.0126377
0.0201156
0.0306559
0.0447122
0.0624904
0.0839207
0.108695
0.136337
0.166277
0.197911
0.230642
0.263912
0.297221
0.330138
0.362306
0.393436
0.423311
0.45177
0.478707
0.504057
0.527796
0.549929
0.570485
0.589512
0.607069
0.623225
0.638054
0.651634
0.664042
0.675357
0.685655
0.695009
0.703383
0.710745
0.717721
0.724014
0.729669
0.734763
0.739353
0.74349
0.747216
0.750568
0.753575
0.756259
0.758631
0.760725
0.762646
0.764308
0.765718
0.766885
0.76782
0.768538
0.769062
0.769425
0.769662
0.769809
0.769895
0.769945
0.769972
0.769986
0.769993
0.769997
0.769998
0.769999
0.77
0.77
0.77
0.77
0.77
0.77
0.77
0.77
0.77
0.77
0.77
0.77
0.77
0.77
0.77
0.77
1.61309e-09
8.59021e-09
2.46635e-08
6.1692e-08
1.46625e-07
3.40199e-07
7.77715e-07
1.75674e-06
3.92195e-06
8.64708e-06
1.88045e-05
4.02742e-05
8.48137e-05
0.000175326
0.000354554
0.000697377
0.00133186
0.00246496
0.00441092
0.0076118
0.012632
0.0201072
0.030644
0.0446963
0.0624701
0.0838955
0.108664
0.136301
0.166236
0.197864
0.230589
0.263853
0.297157
0.330069
0.362231
0.393356
0.423227
0.451682
0.478614
0.503961
0.527698
0.54983
0.570385
0.589412
0.606969
0.623126
0.637957
0.651538
0.66395
0.675268
0.685569
0.694927
0.70331
0.710676
0.717656
0.723953
0.729612
0.73471
0.739304
0.743445
0.747175
0.75053
0.753541
0.756229
0.758604
0.760702
0.762624
0.764289
0.765702
0.766872
0.76781
0.768531
0.769057
0.769421
0.76966
0.769807
0.769895
0.769944
0.769971
0.769986
0.769993
0.769997
0.769998
0.769999
0.77
0.77
0.77
0.77
0.77
0.77
0.77
0.77
0.77
0.77
0.77
0.77
0.77
0.77
0.77
0.77
1.61025e-09
8.58093e-09
2.46387e-08
6.16308e-08
1.46481e-07
3.39864e-07
7.76952e-07
1.75503e-06
3.91817e-06
8.63888e-06
1.8787e-05
4.02377e-05
8.47394e-05
0.000175178
0.00035427
0.000696852
0.00133092
0.00246334
0.00440825
0.00760756
0.0126255
0.0200979
0.0306312
0.0446794
0.0624486
0.083869
0.108633
0.136264
0.166193
0.197815
0.230533
0.263791
0.297088
0.329993
0.362148
0.393267
0.423131
0.45158
0.478508
0.50385
0.527583
0.549712
0.570265
0.589291
0.606848
0.623005
0.637837
0.651421
0.663835
0.675156
0.685461
0.694824
0.703218
0.71059
0.717574
0.723876
0.72954
0.734643
0.739242
0.743387
0.747122
0.750482
0.753497
0.75619
0.758571
0.760671
0.762596
0.764265
0.765682
0.766856
0.767798
0.768521
0.769051
0.769417
0.769657
0.769806
0.769894
0.769944
0.769971
0.769985
0.769993
0.769997
0.769998
0.769999
0.77
0.77
0.77
0.77
0.77
0.77
0.77
0.77
0.77
0.77
0.77
0.77
0.77
0.77
0.77
0.77
1.60658e-09
8.56884e-09
2.46065e-08
6.15515e-08
1.46293e-07
3.39431e-07
7.75969e-07
1.75283e-06
3.91334e-06
8.62844e-06
1.87649e-05
4.01919e-05
8.46467e-05
0.000174995
0.000353925
0.000696223
0.00132982
0.00246148
0.00440523
0.00760289
0.0126186
0.0200881
0.0306181
0.0446625
0.0624276
0.0838437
0.108603
0.136229
0.166152
0.197768
0.23048
0.26373
0.297019
0.329915
0.362062
0.393173
0.423028
0.45147
0.47839
0.503726
0.527453
0.549577
0.570127
0.589149
0.606705
0.622862
0.637694
0.65128
0.663696
0.675021
0.68533
0.694697
0.703105
0.710482
0.717472
0.72378
0.72945
0.734559
0.739164
0.743316
0.747057
0.750423
0.753444
0.756142
0.758528
0.760634
0.762561
0.764235
0.765658
0.766837
0.767782
0.76851
0.769043
0.769412
0.769654
0.769804
0.769893
0.769943
0.769971
0.769985
0.769993
0.769997
0.769998
0.769999
0.77
0.77
0.77
0.77
0.77
0.77
0.77
0.77
0.77
0.77
0.77
0.77
0.77
0.77
0.77
0.77
1.60195e-09
8.55304e-09
2.45643e-08
6.14476e-08
1.46048e-07
3.38865e-07
7.74687e-07
1.74997e-06
3.90707e-06
8.61495e-06
1.87365e-05
4.01333e-05
8.45289e-05
0.000174765
0.000353497
0.000695456
0.0013285
0.00245931
0.00440182
0.00759778
0.0126114
0.0200784
0.0306056
0.0446472
0.0624094
0.0838225
0.108578
0.136201
0.16612
0.19773
0.230435
0.263677
0.296957
0.329844
0.36198
0.39308
0.422924
0.451355
0.478265
0.503591
0.52731
0.549426
0.56997
0.588987
0.606539
0.622694
0.637526
0.651112
0.66353
0.674858
0.685172
0.694544
0.702967
0.71035
0.717347
0.723662
0.729339
0.734456
0.739069
0.743228
0.746976
0.750349
0.753377
0.756083
0.758477
0.760588
0.762519
0.764199
0.765628
0.766812
0.767764
0.768496
0.769033
0.769406
0.76965
0.769802
0.769892
0.769943
0.76997
0.769985
0.769993
0.769997
0.769998
0.769999
0.77
0.77
0.77
0.77
0.77
0.77
0.77
0.77
0.77
0.77
0.77
0.77
0.77
0.77
0.77
0.77
1.59606e-09
8.532e-09
2.45081e-08
6.13097e-08
1.45723e-07
3.38117e-07
7.72994e-07
1.7462e-06
3.89884e-06
8.59733e-06
1.86995e-05
4.00579e-05
8.43787e-05
0.000174474
0.000352965
0.000694523
0.00132694
0.0024568
0.00439802
0.00759234
0.012604
0.0200692
0.0305947
0.0446352
0.0623968
0.0838097
0.108565
0.136187
0.166103
0.197709
0.230408
0.263642
0.296912
0.329788
0.361912
0.392998
0.422828
0.451244
0.47814
0.503453
0.527159
0.549264
0.569797
0.588807
0.606352
0.622502
0.637331
0.650916
0.663335
0.674665
0.684982
0.69436
0.702799
0.710191
0.717194
0.723517
0.729204
0.734329
0.738951
0.743119
0.746877
0.750259
0.753296
0.75601
0.758413
0.760532
0.762467
0.764155
0.765591
0.766783
0.767741
0.76848
0.769022
0.769398
0.769645
0.769799
0.76989
0.769942
0.76997
0.769985
0.769993
0.769996
0.769998
0.769999
0.77
0.77
0.77
0.77
0.77
0.77
0.77
0.77
0.77
0.77
0.77
0.77
0.77
0.77
0.77
0.77
1.58842e-09
8.50395e-09
2.44321e-08
6.11228e-08
1.45283e-07
3.37103e-07
7.70698e-07
1.7411e-06
3.88768e-06
8.57344e-06
1.86495e-05
3.99557e-05
8.4176e-05
0.000174084
0.000352257
0.000693294
0.00132491
0.00245365
0.00439342
0.00758611
0.0125963
0.0200606
0.0305864
0.0446286
0.0623936
0.0838105
0.108569
0.136194
0.166111
0.197717
0.230413
0.263641
0.296901
0.329763
0.361871
0.392939
0.422751
0.451148
0.478025
0.503319
0.527007
0.549095
0.569614
0.58861
0.606145
0.622286
0.637109
0.65069
0.663107
0.674438
0.684758
0.69414
0.702598
0.709997
0.717009
0.723341
0.729038
0.734174
0.738807
0.742987
0.746755
0.750148
0.753196
0.755922
0.758336
0.760464
0.762404
0.764102
0.765548
0.766749
0.767715
0.768461
0.769009
0.76939
0.76964
0.769796
0.769888
0.769941
0.76997
0.769985
0.769993
0.769996
0.769998
0.769999
0.77
0.77
0.77
0.77
0.77
0.77
0.77
0.77
0.77
0.77
0.77
0.77
0.77
0.77
0.77
0.77
1.57849e-09
8.46595e-09
2.43282e-08
6.08673e-08
1.44681e-07
3.35719e-07
7.67576e-07
1.73417e-06
3.87262e-06
8.54138e-06
1.85829e-05
3.9821e-05
8.39113e-05
0.000173581
0.000351361
0.000691775
0.00132247
0.00244998
0.00438828
0.00757955
0.0125889
0.0200535
0.0305817
0.0446287
0.0623996
0.083824
0.108592
0.136224
0.166148
0.197757
0.230453
0.263677
0.29693
0.329781
0.361874
0.392922
0.42271
0.451082
0.477933
0.503201
0.526864
0.548928
0.569425
0.588402
0.60592
0.622047
0.636859
0.650432
0.662844
0.674173
0.684493
0.693879
0.702356
0.709763
0.716783
0.723126
0.728837
0.733985
0.738631
0.742824
0.746606
0.750013
0.753074
0.755813
0.758241
0.760382
0.762328
0.764039
0.765496
0.766707
0.767683
0.768438
0.768993
0.76938
0.769634
0.769792
0.769886
0.76994
0.769969
0.769984
0.769992
0.769996
0.769998
0.769999
0.77
0.77
0.77
0.77
0.77
0.77
0.77
0.77
0.77
0.77
0.77
0.77
0.77
0.77
0.77
0.77
1.56541e-09
8.41335e-09
2.41833e-08
6.05098e-08
1.43837e-07
3.33772e-07
7.63161e-07
1.72433e-06
3.85109e-06
8.49523e-06
1.84863e-05
3.96238e-05
8.35206e-05
0.000172831
0.000350013
0.000689469
0.00131875
0.00244437
0.00438051
0.00756988
0.0125786
0.020045
0.0305789
0.0446349
0.0624193
0.0838602
0.108646
0.136295
0.166234
0.197853
0.230554
0.263776
0.297022
0.32986
0.361934
0.392962
0.422725
0.451067
0.477883
0.503117
0.526745
0.548777
0.569243
0.588192
0.605684
0.62179
0.636583
0.650142
0.662544
0.673866
0.684184
0.69357
0.702066
0.709482
0.716511
0.722864
0.728591
0.733755
0.738416
0.742624
0.746422
0.749846
0.752924
0.75568
0.758126
0.760281
0.762237
0.763962
0.765433
0.766658
0.767646
0.768411
0.768975
0.769368
0.769627
0.769788
0.769884
0.769939
0.769968
0.769984
0.769992
0.769996
0.769998
0.769999
0.77
0.77
0.77
0.77
0.77
0.77
0.77
0.77
0.77
0.77
0.77