/*--------------------------------*- C++ -*----------------------------------*\
  =========                 |
  \\      /  F ield         | OpenFOAM: The Open Source CFD Toolbox
   \\    /   O peration     | Website:  https://openfoam.org
    \\  /    A nd           | Version:  10
     \\/     M anipulation  |
\*---------------------------------------------------------------------------*/
FoamFile
{
    format      ascii;
    class       volScalarField;
    location    "1";
    object      O2;
}
// * * * * * * * * * * * * * * * * * * * * * * * * * * * * * * * * * * * * * //

dimensions      [0 0 0 0 0 0 0];

internalField   nonuniform List<scalar> 
4000
(
6.21825e-14
3.41747e-13
9.81432e-13
2.44608e-12
5.78671e-12
1.33656e-11
3.04484e-11
6.86496e-11
1.53298e-10
3.38884e-10
7.40806e-10
1.59909e-09
3.40269e-09
7.12409e-09
1.46451e-08
2.94029e-08
5.73651e-08
1.08499e-07
1.98376e-07
3.49458e-07
5.90985e-07
9.56179e-07
1.47639e-06
2.17385e-06
3.0567e-06
4.11771e-06
5.33605e-06
6.68252e-06
8.12388e-06
9.62629e-06
1.11576e-05
1.2689e-05
1.41957e-05
1.56561e-05
1.7055e-05
1.83854e-05
1.96523e-05
2.08788e-05
2.21147e-05
2.34481e-05
2.5019e-05
2.70382e-05
2.98189e-05
3.38356e-05
3.98413e-05
4.91003e-05
6.38502e-05
8.83244e-05
0.000130731
0.000207392
0.000350821
0.000624895
0.00115303
0.00214272
0.004018
0.00770722
0.0147386
0.0281172
0.0471019
0.0676539
0.0879077
0.107038
0.124715
0.14084
0.155401
0.168382
0.17996
0.19055
0.199743
0.207553
0.213994
0.219097
0.222937
0.225658
0.227462
0.228584
0.229242
0.229608
0.229804
0.229904
0.229954
0.229979
0.22999
0.229995
0.229998
0.229999
0.23
0.23
0.23
0.23
0.23
0.23
0.23
0.23
0.23
0.23
0.23
0.23
0.23
0.23
6.52257e-14
3.58205e-13
1.03087e-12
2.57818e-12
6.124e-12
1.42039e-11
3.24858e-11
7.34943e-11
1.64552e-10
3.64369e-10
7.96938e-10
1.719e-09
3.65048e-09
7.61804e-09
1.55919e-08
3.10881e-08
6.01874e-08
1.129e-07
2.04668e-07
3.5754e-07
5.99994e-07
9.64274e-07
1.48091e-06
2.17204e-06
3.04662e-06
4.09806e-06
5.3075e-06
6.64752e-06
8.08627e-06
9.5906e-06
1.11284e-05
1.26704e-05
1.41897e-05
1.56661e-05
1.70847e-05
1.84376e-05
1.9729e-05
2.09813e-05
2.22441e-05
2.36061e-05
2.52094e-05
2.72688e-05
3.01052e-05
3.42071e-05
4.03503e-05
4.98254e-05
6.49705e-05
9.01976e-05
0.000134078
0.000213705
0.000363177
0.000649556
0.00120258
0.00223566
0.00419954
0.0080592
0.0154137
0.0293906
0.048633
0.0692703
0.0895211
0.108602
0.126205
0.142239
0.156694
0.169551
0.181035
0.191502
0.200556
0.208216
0.214502
0.219454
0.223163
0.225782
0.227519
0.228603
0.229244
0.229605
0.2298
0.229901
0.229952
0.229977
0.22999
0.229995
0.229998
0.229999
0.23
0.23
0.23
0.23
0.23
0.23
0.23
0.23
0.23
0.23
0.23
0.23
0.23
0.23
6.85051e-14
3.75642e-13
1.08129e-12
2.70654e-12
6.43465e-12
1.49343e-11
3.41647e-11
7.72703e-11
1.72853e-10
3.82176e-10
8.34145e-10
1.79458e-09
3.79948e-09
7.90266e-09
1.61177e-08
3.19969e-08
6.16867e-08
1.15239e-07
2.08073e-07
3.62045e-07
6.05228e-07
9.69391e-07
1.48485e-06
2.17364e-06
3.0443e-06
4.09102e-06
5.29574e-06
6.63206e-06
8.06918e-06
9.57497e-06
1.11181e-05
1.26685e-05
1.42014e-05
1.56962e-05
1.71371e-05
1.8516e-05
1.98367e-05
2.11211e-05
2.2419e-05
2.38199e-05
2.54683e-05
2.75844e-05
3.04991e-05
3.47141e-05
4.1025e-05
5.08098e-05
6.65649e-05
9.28812e-05
0.000138839
0.000222547
0.000380079
0.000682165
0.00126513
0.00234704
0.00449043
0.00858518
0.0164052
0.0312339
0.0508182
0.0715429
0.0917505
0.11072
0.128173
0.144035
0.158298
0.170952
0.182278
0.192548
0.201402
0.208867
0.21497
0.219766
0.223351
0.225884
0.227567
0.228623
0.22925
0.229605
0.229799
0.2299
0.229952
0.229977
0.229989
0.229995
0.229998
0.229999
0.23
0.23
0.23
0.23
0.23
0.23
0.23
0.23
0.23
0.23
0.23
0.23
0.23
0.23
7.09931e-14
3.88546e-13
1.11773e-12
2.79697e-12
6.64819e-12
1.54254e-11
3.52723e-11
7.97249e-11
1.78193e-10
3.93566e-10
8.57915e-10
1.84301e-09
3.89547e-09
8.0869e-09
1.6455e-08
3.25733e-08
6.26152e-08
1.16637e-07
2.10017e-07
3.64525e-07
6.0806e-07
9.72054e-07
1.48612e-06
2.17265e-06
3.04031e-06
4.08374e-06
5.28579e-06
6.6209e-06
8.0589e-06
9.56791e-06
1.11166e-05
1.26771e-05
1.42244e-05
1.57374e-05
1.72002e-05
1.86048e-05
1.99546e-05
2.12717e-05
2.26061e-05
2.40485e-05
2.57464e-05
2.79239e-05
3.09177e-05
3.52479e-05
4.17913e-05
5.19928e-05
6.84198e-05
9.60014e-05
0.000144423
0.000233048
0.000400447
0.000722208
0.00134393
0.00249731
0.00477975
0.00913511
0.0174473
0.0331353
0.0530563
0.073854
0.0939988
0.112834
0.130116
0.145786
0.15984
0.172284
0.183457
0.193535
0.202201
0.209488
0.215429
0.220085
0.223558
0.226008
0.227635
0.228657
0.229265
0.229611
0.229801
0.229901
0.229952
0.229977
0.229989
0.229995
0.229998
0.229999
0.23
0.23
0.23
0.23
0.23
0.23
0.23
0.23
0.23
0.23
0.23
0.23
0.23
0.23
7.29263e-14
3.98455e-13
1.1457e-12
2.86681e-12
6.81478e-12
1.58137e-11
3.61624e-11
8.17333e-11
1.82645e-10
4.03239e-10
8.78455e-10
1.8855e-09
3.98082e-09
8.25276e-09
1.67577e-08
3.30988e-08
6.34755e-08
1.17952e-07
2.11878e-07
3.66918e-07
6.10788e-07
9.7473e-07
1.4886e-06
2.17385e-06
3.03971e-06
4.08139e-06
5.28223e-06
6.61714e-06
8.05629e-06
9.56868e-06
1.11242e-05
1.26947e-05
1.42551e-05
1.57844e-05
1.7267e-05
1.86948e-05
2.00713e-05
2.14185e-05
2.27873e-05
2.42691e-05
2.6013e-05
2.82481e-05
3.13297e-05
3.58258e-05
4.26001e-05
5.31649e-05
7.02572e-05
9.90909e-05
0.000149945
0.000243396
0.000420402
0.00076108
0.00141949
0.00263916
0.00505465
0.00965853
0.0184374
0.0348885
0.0551001
0.0759506
0.0960265
0.11473
0.131848
0.147336
0.161195
0.17345
0.184491
0.194393
0.202891
0.210021
0.215821
0.220356
0.223733
0.226112
0.227693
0.228686
0.229279
0.229617
0.229803
0.229901
0.229952
0.229977
0.229989
0.229995
0.229998
0.229999
0.23
0.23
0.23
0.23
0.23
0.23
0.23
0.23
0.23
0.23
0.23
0.23
0.23
0.23
7.43361e-14
4.05503e-13
1.16533e-12
2.91526e-12
6.92891e-12
1.60758e-11
3.67532e-11
8.30407e-11
1.85481e-10
4.09257e-10
8.90913e-10
1.9106e-09
4.02992e-09
8.3458e-09
1.69229e-08
3.33785e-08
6.39262e-08
1.18639e-07
2.12857e-07
3.68206e-07
6.12321e-07
9.76308e-07
1.4897e-06
2.17426e-06
3.03934e-06
4.08039e-06
5.28102e-06
6.61664e-06
8.05828e-06
9.57533e-06
1.11377e-05
1.27174e-05
1.42895e-05
1.58334e-05
1.73335e-05
1.87816e-05
2.01812e-05
2.15543e-05
2.29512e-05
2.44648e-05
2.62484e-05
2.85445e-05
3.17286e-05
3.63523e-05
4.33339e-05
5.42509e-05
7.19731e-05
0.000101984
0.000155119
0.000253076
0.000438996
0.000797104
0.00148904
0.00276897
0.00530749
0.0101397
0.0193462
0.0364261
0.0568684
0.0777509
0.0977581
0.116342
0.133315
0.148644
0.162334
0.174431
0.185365
0.19512
0.203478
0.210477
0.216161
0.220596
0.223892
0.22621
0.22775
0.228717
0.229295
0.229625
0.229806
0.229903
0.229952
0.229977
0.229989
0.229995
0.229998
0.229999
0.23
0.23
0.23
0.23
0.23
0.23
0.23
0.23
0.23
0.23
0.23
0.23
0.23
0.23
7.53971e-14
4.10705e-13
1.17976e-12
2.95099e-12
7.01364e-12
1.62722e-11
3.72007e-11
8.40446e-11
1.87694e-10
4.14036e-10
9.01009e-10
1.93139e-09
4.07153e-09
8.42647e-09
1.707e-08
3.36341e-08
6.43462e-08
1.19287e-07
2.13787e-07
3.6943e-07
6.13781e-07
9.77872e-07
1.49122e-06
2.17551e-06
3.04024e-06
4.08123e-06
5.28248e-06
6.61978e-06
8.06438e-06
9.5859e-06
1.11545e-05
1.27425e-05
1.43252e-05
1.58818e-05
1.73967e-05
1.88615e-05
2.02796e-05
2.16729e-05
2.30925e-05
2.46346e-05
2.64641e-05
2.88264e-05
3.2086e-05
3.68269e-05
4.39998e-05
5.52438e-05
7.35525e-05
0.000104664
0.000159937
0.000262136
0.000456481
0.000831145
0.00155404
0.00289166
0.0055409
0.0105823
0.0201769
0.037747
0.0583613
0.079258
0.0992006
0.11768
0.13453
0.149727
0.163277
0.175245
0.186097
0.195729
0.203971
0.210863
0.21645
0.220801
0.224029
0.226296
0.2278
0.228745
0.229309
0.229632
0.22981
0.229904
0.229953
0.229977
0.229989
0.229995
0.229998
0.229999
0.23
0.23
0.23
0.23
0.23
0.23
0.23
0.23
0.23
0.23
0.23
0.23
0.23
0.23
7.61827e-14
4.14449e-13
1.19003e-12
2.97623e-12
7.07308e-12
1.64089e-11
3.75093e-11
8.47292e-11
1.89183e-10
4.17206e-10
9.07594e-10
1.94471e-09
4.09768e-09
8.47619e-09
1.71586e-08
3.37847e-08
6.45894e-08
1.19658e-07
2.14319e-07
3.70141e-07
6.14658e-07
9.78856e-07
1.4922e-06
2.17677e-06
3.04186e-06
4.08351e-06
5.28596e-06
6.62527e-06
8.07291e-06
9.59876e-06
1.11732e-05
1.27685e-05
1.436e-05
1.59272e-05
1.74542e-05
1.89325e-05
2.03656e-05
2.17767e-05
2.32236e-05
2.48038e-05
2.66716e-05
2.90771e-05
3.24034e-05
3.72495e-05
4.45952e-05
5.61361e-05
7.49784e-05
0.000107092
0.000164316
0.000270382
0.000472397
0.000862102
0.00161267
0.00300235
0.00575421
0.0109889
0.0209389
0.0388711
0.0596058
0.0805032
0.100387
0.118778
0.135526
0.150614
0.164049
0.175915
0.186703
0.196235
0.204383
0.211187
0.216695
0.220976
0.224148
0.226372
0.227846
0.22877
0.229323
0.229639
0.229813
0.229906
0.229954
0.229978
0.229989
0.229995
0.229998
0.229999
0.23
0.23
0.23
0.23
0.23
0.23
0.23
0.23
0.23
0.23
0.23
0.23
0.23
0.23
7.67768e-14
4.17202e-13
1.19752e-12
2.99465e-12
7.11658e-12
1.65094e-11
3.77374e-11
8.52388e-11
1.90301e-10
4.19612e-10
9.12659e-10
1.95511e-09
4.11847e-09
8.51651e-09
1.72324e-08
3.39141e-08
6.48054e-08
1.2e-07
2.1483e-07
3.7086e-07
6.15611e-07
9.80052e-07
1.49366e-06
2.17837e-06
3.04396e-06
4.08646e-06
5.29023e-06
6.63155e-06
8.08206e-06
9.61176e-06
1.11911e-05
1.27926e-05
1.43915e-05
1.59673e-05
1.75044e-05
1.89951e-05
2.0446e-05
2.18811e-05
2.33498e-05
2.49512e-05
2.68477e-05
2.92935e-05
3.26797e-05
3.762e-05
4.51203e-05
5.69268e-05
7.62474e-05
0.000109262
0.000168242
0.000277793
0.000486728
0.000890016
0.00166545
0.00310236
0.00594761
0.0113588
0.0216373
0.0398258
0.0606393
0.0815274
0.101358
0.119676
0.136339
0.151339
0.164681
0.176465
0.187205
0.196656
0.204727
0.21146
0.216901
0.221126
0.22425
0.226437
0.227885
0.228793
0.229335
0.229646
0.229816
0.229907
0.229955
0.229978
0.22999
0.229995
0.229998
0.229999
0.23
0.23
0.23
0.23
0.23
0.23
0.23
0.23
0.23
0.23
0.23
0.23
0.23
0.23
7.72251e-14
4.1922e-13
1.20296e-12
3.00798e-12
7.14798e-12
1.65817e-11
3.79009e-11
8.56027e-11
1.91096e-10
4.21314e-10
9.16221e-10
1.96239e-09
4.13293e-09
8.54445e-09
1.72835e-08
3.40036e-08
6.49559e-08
1.20242e-07
2.15203e-07
3.71407e-07
6.16377e-07
9.81079e-07
1.49498e-06
2.17998e-06
3.04605e-06
4.08953e-06
5.29473e-06
6.63802e-06
8.09117e-06
9.62424e-06
1.12077e-05
1.28139e-05
1.44197e-05
1.60047e-05
1.75538e-05
1.90598e-05
2.05245e-05
2.19719e-05
2.3456e-05
2.50763e-05
2.69979e-05
2.9479e-05
3.29179e-05
3.79409e-05
4.55771e-05
5.76177e-05
7.73605e-05
0.000111172
0.000171708
0.00028435
0.000499429
0.000914785
0.00171222
0.00319121
0.00611976
0.0116889
0.0222642
0.0406318
0.061495
0.0823685
0.102153
0.120409
0.137003
0.151931
0.165198
0.176918
0.18762
0.197006
0.205015
0.211688
0.217076
0.221253
0.224337
0.226494
0.22792
0.228813
0.229346
0.229651
0.229819
0.229909
0.229955
0.229978
0.22999
0.229995
0.229998
0.229999
0.23
0.23
0.23
0.23
0.23
0.23
0.23
0.23
0.23
0.23
0.23
0.23
0.23
0.23
7.75694e-14
4.20729e-13
1.207e-12
3.01784e-12
7.17124e-12
1.66353e-11
3.80227e-11
8.58747e-11
1.91693e-10
4.226e-10
9.18934e-10
1.96798e-09
4.14419e-09
8.56649e-09
1.73245e-08
3.40773e-08
6.50834e-08
1.20455e-07
2.15542e-07
3.71932e-07
6.17165e-07
9.82232e-07
1.49664e-06
2.18236e-06
3.04916e-06
4.09327e-06
5.29965e-06
6.64476e-06
8.10056e-06
9.63738e-06
1.12261e-05
1.28399e-05
1.44533e-05
1.60462e-05
1.76032e-05
1.91167e-05
2.05906e-05
2.20487e-05
2.35456e-05
2.5182e-05
2.7125e-05
2.96364e-05
3.31207e-05
3.82149e-05
4.59687e-05
5.82117e-05
7.83204e-05
0.000112823
0.000174709
0.000290039
0.000510455
0.000936295
0.00175273
0.00326828
0.00626916
0.0119755
0.0228102
0.0413062
0.0622011
0.0830583
0.102803
0.121008
0.137546
0.152416
0.165621
0.177291
0.187964
0.197297
0.205254
0.211879
0.217223
0.22136
0.224412
0.226543
0.22795
0.228831
0.229356
0.229657
0.229822
0.22991
0.229956
0.229979
0.22999
0.229995
0.229998
0.229999
0.23
0.23
0.23
0.23
0.23
0.23
0.23
0.23
0.23
0.23
0.23
0.23
0.23
0.23
7.78352e-14
4.21875e-13
1.21002e-12
3.02522e-12
7.18862e-12
1.66754e-11
3.81137e-11
8.6078e-11
1.9214e-10
4.23563e-10
9.20968e-10
1.97219e-09
4.15268e-09
8.58321e-09
1.7356e-08
3.41345e-08
6.5184e-08
1.20625e-07
2.15824e-07
3.72383e-07
6.17866e-07
9.83302e-07
1.49825e-06
2.18474e-06
3.05269e-06
4.09846e-06
5.30682e-06
6.65435e-06
8.11306e-06
9.65329e-06
1.12458e-05
1.28634e-05
1.44817e-05
1.60802e-05
1.76435e-05
1.9164e-05
2.06459e-05
2.21131e-05
2.36207e-05
2.52706e-05
2.72315e-05
2.97684e-05
3.3291e-05
3.84458e-05
4.62992e-05
5.87144e-05
7.91344e-05
0.000114225
0.000177263
0.000294879
0.000519833
0.000954582
0.00178708
0.00333363
0.00639578
0.0122184
0.0232732
0.0418651
0.0627812
0.0836229
0.103334
0.121497
0.13799
0.152812
0.165969
0.177598
0.188249
0.197538
0.205454
0.21204
0.217346
0.221451
0.224475
0.226584
0.227975
0.228846
0.229365
0.229661
0.229824
0.229911
0.229956
0.229979
0.22999
0.229995
0.229998
0.229999
0.23
0.23
0.23
0.23
0.23
0.23
0.23
0.23
0.23
0.23
0.23
0.23
0.23
0.23
7.80435e-14
4.22749e-13
1.21232e-12
3.03084e-12
7.20189e-12
1.67061e-11
3.81834e-11
8.62342e-11
1.92484e-10
4.24309e-10
9.22555e-10
1.97549e-09
4.15941e-09
8.5966e-09
1.73815e-08
3.41817e-08
6.52684e-08
1.20772e-07
2.16069e-07
3.72781e-07
6.18494e-07
9.84263e-07
1.49968e-06
2.18684e-06
3.05567e-06
4.10264e-06
5.31253e-06
6.66197e-06
8.12302e-06
9.66602e-06
1.12618e-05
1.2883e-05
1.45055e-05
1.61087e-05
1.76773e-05
1.92036e-05
2.0692e-05
2.21666e-05
2.36831e-05
2.5344e-05
2.73197e-05
2.98777e-05
3.34322e-05
3.86374e-05
4.65742e-05
5.91333e-05
7.98136e-05
0.000115397
0.000179398
0.000298926
0.000527673
0.000969856
0.00181568
0.00338805
0.00650115
0.0124203
0.0236583
0.0423242
0.0632556
0.0840836
0.103767
0.121896
0.138352
0.153136
0.166253
0.17785
0.188484
0.197737
0.205619
0.212173
0.217449
0.221527
0.224528
0.226619
0.227997
0.228859
0.229372
0.229665
0.229826
0.229913
0.229957
0.229979
0.22999
0.229995
0.229998
0.229999
0.23
0.23
0.23
0.23
0.23
0.23
0.23
0.23
0.23
0.23
0.23
0.23
0.23
0.23
7.82074e-14
4.23421e-13
1.2141e-12
3.03517e-12
7.21213e-12
1.67298e-11
3.82375e-11
8.63556e-11
1.92752e-10
4.24893e-10
9.23802e-10
1.9781e-09
4.16477e-09
8.60734e-09
1.74023e-08
3.42206e-08
6.53391e-08
1.20896e-07
2.16282e-07
3.73132e-07
6.19056e-07
9.85134e-07
1.50099e-06
2.18874e-06
3.05837e-06
4.10636e-06
5.31755e-06
6.6686e-06
8.13159e-06
9.6769e-06
1.12753e-05
1.28997e-05
1.45256e-05
1.61326e-05
1.77056e-05
1.92366e-05
2.07302e-05
2.22108e-05
2.37343e-05
2.54041e-05
2.73918e-05
2.99671e-05
3.35477e-05
3.87943e-05
4.67996e-05
5.94773e-05
8.03722e-05
0.000116362
0.000181155
0.000302259
0.000534128
0.000982423
0.00183916
0.0034327
0.00658756
0.0125859
0.0239738
0.0426981
0.0636409
0.0844573
0.104118
0.12222
0.138646
0.1534
0.166485
0.178056
0.188676
0.197901
0.205756
0.212283
0.217535
0.22159
0.224572
0.226648
0.228016
0.22887
0.229378
0.229668
0.229828
0.229913
0.229957
0.229979
0.22999
0.229995
0.229998
0.229999
0.23
0.23
0.23
0.23
0.23
0.23
0.23
0.23
0.23
0.23
0.23
0.23
0.23
0.23
7.83351e-14
4.23941e-13
1.21548e-12
3.03854e-12
7.22013e-12
1.67484e-11
3.82799e-11
8.6451e-11
1.92964e-10
4.25355e-10
9.24795e-10
1.9802e-09
4.16909e-09
8.61609e-09
1.74194e-08
3.42531e-08
6.53989e-08
1.21003e-07
2.16467e-07
3.73441e-07
6.19555e-07
9.85912e-07
1.50216e-06
2.19044e-06
3.06077e-06
4.10966e-06
5.32196e-06
6.67437e-06
8.13899e-06
9.6862e-06
1.12868e-05
1.29137e-05
1.45424e-05
1.61525e-05
1.77289e-05
1.92637e-05
2.07614e-05
2.22467e-05
2.37758e-05
2.54526e-05
2.74499e-05
3.0039e-05
3.36407e-05
3.89208e-05
4.69816e-05
5.97553e-05
8.08242e-05
0.000117143
0.00018258
0.00030496
0.000539356
0.000992597
0.00185813
0.00346877
0.00665734
0.0127195
0.0242285
0.0429989
0.0639503
0.0847573
0.1044
0.12248
0.138883
0.153612
0.166672
0.178222
0.188832
0.198034
0.205867
0.212373
0.217605
0.221642
0.224609
0.226673
0.228031
0.228879
0.229383
0.229671
0.22983
0.229914
0.229958
0.22998
0.22999
0.229995
0.229998
0.229999
0.23
0.23
0.23
0.23
0.23
0.23
0.23
0.23
0.23
0.23
0.23
0.23
0.23
0.23
7.84325e-14
4.24343e-13
1.21654e-12
3.04116e-12
7.22634e-12
1.67628e-11
3.83129e-11
8.65256e-11
1.9313e-10
4.25719e-10
9.25581e-10
1.98186e-09
4.17256e-09
8.62314e-09
1.74333e-08
3.42797e-08
6.54485e-08
1.21093e-07
2.16623e-07
3.73705e-07
6.19985e-07
9.86586e-07
1.50318e-06
2.19192e-06
3.06285e-06
4.11249e-06
5.32573e-06
6.67927e-06
8.14521e-06
9.69396e-06
1.12964e-05
1.29252e-05
1.45561e-05
1.61687e-05
1.77477e-05
1.92854e-05
2.07863e-05
2.22752e-05
2.38086e-05
2.5491e-05
2.74957e-05
3.00957e-05
3.3714e-05
3.90207e-05
4.71255e-05
5.99752e-05
8.1182e-05
0.000117762
0.000183708
0.000307102
0.000543502
0.00100066
0.00187314
0.00349731
0.00671253
0.0128252
0.0244298
0.0432362
0.0641944
0.0849939
0.104622
0.122685
0.13907
0.15378
0.166819
0.178355
0.188956
0.19814
0.205955
0.212445
0.217661
0.221684
0.224638
0.226692
0.228043
0.228886
0.229387
0.229674
0.229831
0.229915
0.229958
0.22998
0.22999
0.229996
0.229998
0.229999
0.23
0.23
0.23
0.23
0.23
0.23
0.23
0.23
0.23
0.23
0.23
0.23
0.23
0.23
7.85052e-14
4.24644e-13
1.21735e-12
3.04314e-12
7.23106e-12
1.67738e-11
3.83382e-11
8.65827e-11
1.93258e-10
4.26e-10
9.26189e-10
1.98316e-09
4.17526e-09
8.62868e-09
1.74443e-08
3.4301e-08
6.54884e-08
1.21165e-07
2.1675e-07
3.73922e-07
6.20339e-07
9.87143e-07
1.50402e-06
2.19314e-06
3.06456e-06
4.11482e-06
5.32881e-06
6.68324e-06
8.15023e-06
9.70019e-06
1.1304e-05
1.29343e-05
1.45669e-05
1.61814e-05
1.77624e-05
1.93022e-05
2.08056e-05
2.22972e-05
2.38338e-05
2.55203e-05
2.75307e-05
3.01389e-05
3.377e-05
3.9097e-05
4.72355e-05
6.01438e-05
8.14566e-05
0.000118237
0.000184576
0.000308746
0.000546683
0.00100684
0.00188463
0.00351917
0.00675479
0.0129061
0.024584
0.0434178
0.0643811
0.0851749
0.104793
0.122842
0.139213
0.153909
0.166934
0.178458
0.189048
0.19822
0.206022
0.2125
0.217704
0.221717
0.224661
0.226708
0.228053
0.228892
0.229391
0.229675
0.229832
0.229915
0.229958
0.22998
0.22999
0.229996
0.229998
0.229999
0.23
0.23
0.23
0.23
0.23
0.23
0.23
0.23
0.23
0.23
0.23
0.23
0.23
0.23
7.85563e-14
4.24859e-13
1.21793e-12
3.04458e-12
7.23449e-12
1.67818e-11
3.83565e-11
8.66243e-11
1.93351e-10
4.26205e-10
9.26635e-10
1.98411e-09
4.17726e-09
8.63278e-09
1.74525e-08
3.43169e-08
6.55184e-08
1.2122e-07
2.16848e-07
3.74087e-07
6.20611e-07
9.8757e-07
1.50466e-06
2.19408e-06
3.06588e-06
4.1166e-06
5.33115e-06
6.68625e-06
8.15402e-06
9.70486e-06
1.13096e-05
1.29411e-05
1.45749e-05
1.61907e-05
1.77732e-05
1.93146e-05
2.08196e-05
2.23132e-05
2.38521e-05
2.55415e-05
2.7556e-05
3.01702e-05
3.38105e-05
3.91522e-05
4.73152e-05
6.0266e-05
8.16557e-05
0.000118582
0.000185205
0.00030994
0.000548992
0.00101133
0.00189296
0.00353501
0.00678542
0.0129647
0.0246957
0.0435494
0.0645164
0.0853061
0.104916
0.122956
0.139317
0.154003
0.167017
0.178533
0.189114
0.198277
0.206071
0.212539
0.217735
0.22174
0.224678
0.226719
0.22806
0.228896
0.229393
0.229677
0.229833
0.229916
0.229959
0.22998
0.22999
0.229996
0.229998
0.229999
0.23
0.23
0.23
0.23
0.23
0.23
0.23
0.23
0.23
0.23
0.23
0.23
0.23
0.23
7.85883e-14
4.24996e-13
1.2183e-12
3.0455e-12
7.23669e-12
1.6787e-11
3.83684e-11
8.66512e-11
1.93411e-10
4.26338e-10
9.26924e-10
1.98473e-09
4.17856e-09
8.63547e-09
1.74579e-08
3.43274e-08
6.55383e-08
1.21256e-07
2.16912e-07
3.74198e-07
6.20792e-07
9.87857e-07
1.5051e-06
2.19471e-06
3.06676e-06
4.11779e-06
5.33272e-06
6.68826e-06
8.15654e-06
9.70797e-06
1.13134e-05
1.29456e-05
1.45802e-05
1.61968e-05
1.77802e-05
1.93226e-05
2.08288e-05
2.23235e-05
2.38639e-05
2.55552e-05
2.75724e-05
3.01905e-05
3.38367e-05
3.9188e-05
4.7367e-05
6.03454e-05
8.17852e-05
0.000118806
0.000185615
0.000310717
0.000550494
0.00101425
0.00189838
0.00354532
0.00680534
0.0130029
0.0247684
0.043635
0.0646043
0.0853914
0.104997
0.12303
0.139385
0.154064
0.167071
0.178581
0.189157
0.198314
0.206101
0.212564
0.217755
0.221755
0.224688
0.226726
0.228065
0.228899
0.229395
0.229678
0.229833
0.229916
0.229959
0.22998
0.229991
0.229996
0.229998
0.229999
0.23
0.23
0.23
0.23
0.23
0.23
0.23
0.23
0.23
0.23
0.23
0.23
0.23
0.23
7.86027e-14
4.25059e-13
1.21847e-12
3.04594e-12
7.23774e-12
1.67894e-11
3.8374e-11
8.66639e-11
1.93439e-10
4.264e-10
9.2706e-10
1.98502e-09
4.17917e-09
8.63671e-09
1.74604e-08
3.43323e-08
6.55475e-08
1.21273e-07
2.16942e-07
3.74249e-07
6.20877e-07
9.8799e-07
1.5053e-06
2.19501e-06
3.06717e-06
4.11836e-06
5.33346e-06
6.68922e-06
8.15774e-06
9.70945e-06
1.13152e-05
1.29477e-05
1.45827e-05
1.61998e-05
1.77836e-05
1.93265e-05
2.08332e-05
2.23285e-05
2.38696e-05
2.55619e-05
2.75803e-05
3.02003e-05
3.38494e-05
3.92054e-05
4.73921e-05
6.03839e-05
8.18482e-05
0.000118915
0.000185814
0.000311095
0.000551226
0.00101567
0.00190102
0.00355034
0.00681506
0.0130215
0.0248039
0.0436766
0.0646471
0.0854329
0.105035
0.123066
0.139418
0.154093
0.167097
0.178605
0.189177
0.198331
0.206116
0.212576
0.217764
0.221761
0.224693
0.226729
0.228067
0.2289
0.229396
0.229678
0.229833
0.229916
0.229959
0.22998
0.229991
0.229996
0.229998
0.229999
0.23
0.23
0.23
0.23
0.23
0.23
0.23
0.23
0.23
0.23
0.23
0.23
0.23
0.23
7.86007e-14
4.25054e-13
1.21847e-12
3.04594e-12
7.23773e-12
1.67894e-11
3.83739e-11
8.66637e-11
1.93439e-10
4.264e-10
9.27058e-10
1.98502e-09
4.17916e-09
8.6367e-09
1.74603e-08
3.43322e-08
6.55474e-08
1.21273e-07
2.16942e-07
3.74249e-07
6.20876e-07
9.87989e-07
1.5053e-06
2.19501e-06
3.06717e-06
4.11835e-06
5.33346e-06
6.68921e-06
8.15773e-06
9.70944e-06
1.13152e-05
1.29477e-05
1.45827e-05
1.61998e-05
1.77836e-05
1.93265e-05
2.08332e-05
2.23285e-05
2.38696e-05
2.55619e-05
2.75803e-05
3.02003e-05
3.38494e-05
3.92054e-05
4.73921e-05
6.03839e-05
8.18482e-05
0.000118915
0.000185814
0.000311095
0.000551227
0.00101567
0.00190102
0.00355035
0.00681506
0.0130215
0.0248039
0.0436767
0.0646472
0.0854329
0.105036
0.123067
0.139418
0.154093
0.167097
0.178605
0.189177
0.198331
0.206116
0.212576
0.217764
0.221761
0.224693
0.226729
0.228067
0.2289
0.229396
0.229678
0.229833
0.229916
0.229959
0.22998
0.229991
0.229996
0.229998
0.229999
0.23
0.23
0.23
0.23
0.23
0.23
0.23
0.23
0.23
0.23
0.23
0.23
0.23
0.23
7.85826e-14
4.24982e-13
1.21828e-12
3.04548e-12
7.23666e-12
1.67869e-11
3.83682e-11
8.66508e-11
1.9341e-10
4.26336e-10
9.2692e-10
1.98472e-09
4.17854e-09
8.63543e-09
1.74578e-08
3.43273e-08
6.5538e-08
1.21256e-07
2.16911e-07
3.74196e-07
6.2079e-07
9.87854e-07
1.50509e-06
2.19471e-06
3.06675e-06
4.11778e-06
5.33271e-06
6.68825e-06
8.15652e-06
9.70795e-06
1.13134e-05
1.29455e-05
1.45802e-05
1.61968e-05
1.77802e-05
1.93226e-05
2.08288e-05
2.23235e-05
2.38639e-05
2.55552e-05
2.75723e-05
3.01905e-05
3.38367e-05
3.9188e-05
4.7367e-05
6.03454e-05
8.17852e-05
0.000118806
0.000185615
0.000310717
0.000550495
0.00101425
0.00189839
0.00354533
0.00680536
0.0130029
0.0247685
0.0436351
0.0646045
0.0853915
0.104997
0.123031
0.139385
0.154064
0.167071
0.178581
0.189157
0.198314
0.206101
0.212564
0.217755
0.221755
0.224688
0.226726
0.228065
0.228899
0.229395
0.229678
0.229833
0.229916
0.229959
0.22998
0.229991
0.229996
0.229998
0.229999
0.23
0.23
0.23
0.23
0.23
0.23
0.23
0.23
0.23
0.23
0.23
0.23
0.23
0.23
7.85468e-14
4.24837e-13
1.2179e-12
3.04454e-12
7.23442e-12
1.67817e-11
3.83562e-11
8.66236e-11
1.93349e-10
4.26201e-10
9.26627e-10
1.98409e-09
4.17723e-09
8.63272e-09
1.74523e-08
3.43167e-08
6.5518e-08
1.21219e-07
2.16846e-07
3.74085e-07
6.20607e-07
9.87565e-07
1.50466e-06
2.19407e-06
3.06587e-06
4.11659e-06
5.33113e-06
6.68623e-06
8.15399e-06
9.70484e-06
1.13096e-05
1.29411e-05
1.45749e-05
1.61907e-05
1.77731e-05
1.93146e-05
2.08196e-05
2.23131e-05
2.38521e-05
2.55415e-05
2.7556e-05
3.01702e-05
3.38105e-05
3.91522e-05
4.73152e-05
6.0266e-05
8.16557e-05
0.000118582
0.000185205
0.000309941
0.000548993
0.00101133
0.00189297
0.00353503
0.00678546
0.0129648
0.0246959
0.0435496
0.0645166
0.0853064
0.104916
0.122957
0.139317
0.154003
0.167017
0.178533
0.189114
0.198277
0.206071
0.212539
0.217735
0.22174
0.224678
0.226719
0.22806
0.228896
0.229393
0.229677
0.229833
0.229916
0.229959
0.22998
0.22999
0.229996
0.229998
0.229999
0.23
0.23
0.23
0.23
0.23
0.23
0.23
0.23
0.23
0.23
0.23
0.23
0.23
0.23
7.84917e-14
4.24614e-13
1.21731e-12
3.04309e-12
7.23097e-12
1.67736e-11
3.83377e-11
8.65817e-11
1.93255e-10
4.25995e-10
9.26178e-10
1.98314e-09
4.17522e-09
8.62859e-09
1.74441e-08
3.43007e-08
6.54878e-08
1.21164e-07
2.16749e-07
3.73919e-07
6.20335e-07
9.87136e-07
1.50401e-06
2.19313e-06
3.06455e-06
4.1148e-06
5.32878e-06
6.68321e-06
8.1502e-06
9.70016e-06
1.13039e-05
1.29343e-05
1.45669e-05
1.61813e-05
1.77623e-05
1.93022e-05
2.08056e-05
2.22972e-05
2.38338e-05
2.55203e-05
2.75307e-05
3.01389e-05
3.377e-05
3.9097e-05
4.72355e-05
6.01438e-05
8.14567e-05
0.000118237
0.000184576
0.000308747
0.000546685
0.00100685
0.00188464
0.00351919
0.00675484
0.0129062
0.0245842
0.0434181
0.0643814
0.0851752
0.104793
0.122842
0.139213
0.153909
0.166934
0.178458
0.189048
0.19822
0.206023
0.2125
0.217704
0.221717
0.224661
0.226708
0.228053
0.228892
0.229391
0.229675
0.229832
0.229915
0.229958
0.22998
0.22999
0.229996
0.229998
0.229999
0.23
0.23
0.23
0.23
0.23
0.23
0.23
0.23
0.23
0.23
0.23
0.23
0.23
0.23
7.84169e-14
4.24307e-13
1.2165e-12
3.0411e-12
7.22622e-12
1.67626e-11
3.83123e-11
8.65243e-11
1.93127e-10
4.25713e-10
9.25567e-10
1.98184e-09
4.1725e-09
8.62303e-09
1.74331e-08
3.42793e-08
6.54478e-08
1.21091e-07
2.16621e-07
3.73702e-07
6.1998e-07
9.86578e-07
1.50316e-06
2.19191e-06
3.06283e-06
4.11247e-06
5.3257e-06
6.67923e-06
8.14517e-06
9.69392e-06
1.12963e-05
1.29251e-05
1.4556e-05
1.61687e-05
1.77477e-05
1.92854e-05
2.07863e-05
2.22752e-05
2.38086e-05
2.54909e-05
2.74957e-05
3.00957e-05
3.3714e-05
3.90207e-05
4.71255e-05
5.99754e-05
8.11822e-05
0.000117762
0.000183709
0.000307103
0.000543505
0.00100067
0.00187315
0.00349734
0.00671259
0.0128253
0.0244301
0.0432366
0.0641948
0.0849943
0.104623
0.122685
0.13907
0.15378
0.16682
0.178355
0.188956
0.19814
0.205955
0.212445
0.217661
0.221684
0.224638
0.226692
0.228043
0.228886
0.229387
0.229674
0.229831
0.229915
0.229958
0.22998
0.22999
0.229996
0.229998
0.229999
0.23
0.23
0.23
0.23
0.23
0.23
0.23
0.23
0.23
0.23
0.23
0.23
0.23
0.23
7.83193e-14
4.23904e-13
1.21543e-12
3.03847e-12
7.21999e-12
1.67481e-11
3.82792e-11
8.64494e-11
1.9296e-10
4.25347e-10
9.24779e-10
1.98016e-09
4.16903e-09
8.61596e-09
1.74191e-08
3.42526e-08
6.5398e-08
1.21002e-07
2.16464e-07
3.73437e-07
6.19549e-07
9.85903e-07
1.50215e-06
2.19043e-06
3.06075e-06
4.10963e-06
5.32193e-06
6.67433e-06
8.13894e-06
9.68615e-06
1.12868e-05
1.29136e-05
1.45423e-05
1.61525e-05
1.77288e-05
1.92636e-05
2.07614e-05
2.22467e-05
2.37757e-05
2.54526e-05
2.74499e-05
3.0039e-05
3.36407e-05
3.89208e-05
4.69817e-05
5.97554e-05
8.08243e-05
0.000117143
0.00018258
0.000304961
0.000539359
0.000992604
0.00185815
0.00346881
0.00665742
0.0127197
0.0242288
0.0429993
0.0639508
0.0847578
0.104401
0.12248
0.138883
0.153612
0.166672
0.178223
0.188832
0.198035
0.205867
0.212373
0.217605
0.221643
0.224609
0.226673
0.228031
0.228879
0.229383
0.229671
0.22983
0.229914
0.229958
0.22998
0.22999
0.229995
0.229998
0.229999
0.23
0.23
0.23
0.23
0.23
0.23
0.23
0.23
0.23
0.23
0.23
0.23
0.23
0.23
7.81922e-14
4.23385e-13
1.21405e-12
3.03509e-12
7.21197e-12
1.67295e-11
3.82367e-11
8.63537e-11
1.92748e-10
4.24884e-10
9.23783e-10
1.97807e-09
4.16469e-09
8.60719e-09
1.7402e-08
3.42201e-08
6.53381e-08
1.20895e-07
2.16279e-07
3.73128e-07
6.19049e-07
9.85124e-07
1.50097e-06
2.18872e-06
3.05834e-06
4.10632e-06
5.31751e-06
6.66856e-06
8.13154e-06
9.67684e-06
1.12753e-05
1.28996e-05
1.45255e-05
1.61326e-05
1.77055e-05
1.92366e-05
2.07302e-05
2.22108e-05
2.37343e-05
2.54041e-05
2.73918e-05
2.9967e-05
3.35477e-05
3.87943e-05
4.67997e-05
5.94773e-05
8.03723e-05
0.000116362
0.000181156
0.00030226
0.000534131
0.000982431
0.00183918
0.00343274
0.00658766
0.0125861
0.0239743
0.0426987
0.0636415
0.0844579
0.104119
0.12222
0.138647
0.1534
0.166485
0.178056
0.188676
0.197902
0.205756
0.212283
0.217535
0.221591
0.224572
0.226648
0.228016
0.22887
0.229378
0.229668
0.229828
0.229913
0.229957
0.229979
0.22999
0.229995
0.229998
0.229999
0.23
0.23
0.23
0.23
0.23
0.23
0.23
0.23
0.23
0.23
0.23
0.23
0.23
0.23
7.80297e-14
4.22715e-13
1.21227e-12
3.03074e-12
7.20169e-12
1.67057e-11
3.81825e-11
8.6232e-11
1.92479e-10
4.24299e-10
9.22534e-10
1.97545e-09
4.15932e-09
8.59642e-09
1.73812e-08
3.41811e-08
6.52673e-08
1.2077e-07
2.16066e-07
3.72776e-07
6.18486e-07
9.84252e-07
1.49967e-06
2.18682e-06
3.05565e-06
4.1026e-06
5.31248e-06
6.66192e-06
8.12296e-06
9.66595e-06
1.12617e-05
1.2883e-05
1.45054e-05
1.61086e-05
1.76772e-05
1.92036e-05
2.0692e-05
2.21666e-05
2.3683e-05
2.53439e-05
2.73196e-05
2.98777e-05
3.34322e-05
3.86374e-05
4.65742e-05
5.91333e-05
7.98137e-05
0.000115397
0.000179398
0.000298927
0.000527677
0.000969866
0.00181571
0.0033881
0.00650126
0.0124206
0.0236588
0.0423249
0.0632563
0.0840843
0.103768
0.121897
0.138353
0.153137
0.166254
0.17785
0.188484
0.197738
0.20562
0.212173
0.217449
0.221527
0.224528
0.226619
0.227997
0.228859
0.229372
0.229665
0.229826
0.229913
0.229957
0.229979
0.22999
0.229995
0.229998
0.229999
0.23
0.23
0.23
0.23
0.23
0.23
0.23
0.23
0.23
0.23
0.23
0.23
0.23
0.23
7.78243e-14
4.21847e-13
1.20997e-12
3.02512e-12
7.18841e-12
1.6675e-11
3.81126e-11
8.60755e-11
1.92134e-10
4.23551e-10
9.20944e-10
1.97214e-09
4.15258e-09
8.58302e-09
1.73556e-08
3.41338e-08
6.51827e-08
1.20623e-07
2.1582e-07
3.72377e-07
6.17858e-07
9.8329e-07
1.49823e-06
2.18472e-06
3.05265e-06
4.09842e-06
5.30677e-06
6.65429e-06
8.113e-06
9.65322e-06
1.12458e-05
1.28633e-05
1.44816e-05
1.60801e-05
1.76435e-05
1.91639e-05
2.06458e-05
2.2113e-05
2.36206e-05
2.52705e-05
2.72314e-05
2.97683e-05
3.32909e-05
3.84457e-05
4.62992e-05
5.87144e-05
7.91344e-05
0.000114226
0.000177263
0.00029488
0.000519837
0.000954592
0.0017871
0.00333368
0.0063959
0.0122186
0.0232738
0.0418658
0.062782
0.0836237
0.103335
0.121498
0.137991
0.152813
0.165969
0.177598
0.188249
0.197538
0.205454
0.21204
0.217346
0.221451
0.224475
0.226584
0.227976
0.228846
0.229365
0.229661
0.229824
0.229911
0.229956
0.229979
0.22999
0.229995
0.229998
0.229999
0.23
0.23
0.23
0.23
0.23
0.23
0.23
0.23
0.23
0.23
0.23
0.23
0.23
0.23
7.75629e-14
4.20708e-13
1.20695e-12
3.01774e-12
7.171e-12
1.66348e-11
3.80215e-11
8.5872e-11
1.91687e-10
4.22587e-10
9.18908e-10
1.96793e-09
4.14408e-09
8.56628e-09
1.73241e-08
3.40766e-08
6.50821e-08
1.20452e-07
2.15539e-07
3.71926e-07
6.17156e-07
9.82219e-07
1.49662e-06
2.18233e-06