/*--------------------------------*- C++ -*----------------------------------*\
  =========                 |
  \\      /  F ield         | OpenFOAM: The Open Source CFD Toolbox
   \\    /   O peration     | Website:  https://openfoam.org
    \\  /    A nd           | Version:  10
     \\/     M anipulation  |
\*---------------------------------------------------------------------------*/
FoamFile
{
    format      ascii;
    class       surfaceScalarField;
    location    "1";
    object      phi;
}
// * * * * * * * * * * * * * * * * * * * * * * * * * * * * * * * * * * * * * //

dimensions      [1 0 -1 0 0 0 0];

internalField   nonuniform List<scalar> 
7860
(
6.57972e-07
-1.43685e-08
6.56656e-07
-4.31649e-08
6.54645e-07
-7.19581e-08
6.51867e-07
-1.00697e-07
6.48223e-07
-1.294e-07
6.4359e-07
-1.58061e-07
6.3782e-07
-1.8665e-07
6.30748e-07
-2.1512e-07
6.22193e-07
-2.43403e-07
6.11964e-07
-2.71408e-07
5.9986e-07
-2.99032e-07
5.85677e-07
-3.26155e-07
5.69254e-07
-3.52658e-07
5.50631e-07
-3.78451e-07
5.29782e-07
-4.0336e-07
5.06672e-07
-4.27141e-07
4.81289e-07
-4.49436e-07
4.5367e-07
-4.69733e-07
4.23946e-07
-4.87313e-07
3.92378e-07
-5.01253e-07
3.59399e-07
-5.10527e-07
3.25607e-07
-5.14292e-07
2.91694e-07
-5.12272e-07
2.58311e-07
-5.05029e-07
2.25993e-07
-4.93877e-07
1.95084e-07
-4.80481e-07
1.65714e-07
-4.66314e-07
1.37874e-07
-4.52383e-07
1.11477e-07
-4.39209e-07
8.64116e-08
-4.26946e-07
6.25703e-08
-4.15527e-07
3.9862e-08
-4.04768e-07
1.82611e-08
-3.94484e-07
-2.17622e-09
-3.84545e-07
-2.15203e-08
-3.74788e-07
-3.98058e-08
-3.65133e-07
-5.7077e-08
-3.55502e-07
-7.33667e-08
-3.45784e-07
-8.8702e-08
-3.35962e-07
-1.03107e-07
-3.26051e-07
-1.16607e-07
-3.16076e-07
-1.29224e-07
-3.06072e-07
-1.40985e-07
-2.96082e-07
-1.51918e-07
-2.86154e-07
-1.62049e-07
-2.76337e-07
-1.71412e-07
-2.66684e-07
-1.80038e-07
-2.57249e-07
-1.87963e-07
-2.48086e-07
-1.95224e-07
-2.39253e-07
-2.01868e-07
-2.30812e-07
-2.07948e-07
-2.2284e-07
-2.13538e-07
-2.15436e-07
-2.18739e-07
-2.08739e-07
-2.23684e-07
-2.0306e-07
-2.28581e-07
-1.98625e-07
-2.3375e-07
-1.95978e-07
-2.39732e-07
-1.9633e-07
-2.46939e-07
-2.02085e-07
-2.55595e-07
-2.13412e-07
-2.65612e-07
-2.28118e-07
-2.76947e-07
-2.4527e-07
-2.89663e-07
-2.64532e-07
-3.03908e-07
-2.85884e-07
-3.19906e-07
-3.09471e-07
-3.37967e-07
-3.35505e-07
-3.58541e-07
-3.64033e-07
-3.82173e-07
-3.95898e-07
-4.09568e-07
-4.33645e-07
-4.41076e-07
-4.75637e-07
-4.77012e-07
-5.2101e-07
-5.17539e-07
-5.67641e-07
-5.62453e-07
-6.11911e-07
-6.10998e-07
-6.49177e-07
-6.61823e-07
-6.75225e-07
-7.13193e-07
-6.87992e-07
-7.63427e-07
-6.88167e-07
-8.11267e-07
-6.78263e-07
-8.55974e-07
-6.61209e-07
-8.97238e-07
-6.39443e-07
-9.34986e-07
-6.14673e-07
-9.69284e-07
-5.87986e-07
-1.00024e-06
-5.6005e-07
-1.02794e-06
-5.31259e-07
-1.0524e-06
-5.01844e-07
-1.07379e-06
-4.71913e-07
-1.09243e-06
-4.41579e-07
-1.10857e-06
-4.10961e-07
-1.12247e-06
-3.80169e-07
-1.13438e-06
-3.49291e-07
-1.14451e-06
-3.18403e-07
-1.15307e-06
-2.87564e-07
-1.16023e-06
-2.56817e-07
-1.16618e-06
-2.26191e-07
-1.17106e-06
-1.95701e-07
-1.17499e-06
-1.6535e-07
-1.17811e-06
-1.35126e-07
-1.18049e-06
-1.05008e-07
-1.18222e-06
-7.4963e-08
-1.18335e-06
-4.49426e-08
-1.4961e-08
6.58158e-07
-1.3993e-08
6.56852e-07
-4.18586e-08
6.54517e-07
-6.96235e-08
6.51122e-07
-9.73012e-08
6.46589e-07
-1.24868e-07
6.40822e-07
-1.52293e-07
6.33706e-07
-1.79534e-07
6.25122e-07
-2.06537e-07
6.14954e-07
-2.33235e-07
6.03098e-07
-2.59552e-07
5.89469e-07
-2.85403e-07
5.74006e-07
-3.10693e-07
5.56685e-07
-3.35337e-07
5.37529e-07
-3.59295e-07
5.16529e-07
-3.8236e-07
4.9368e-07
-4.04292e-07
4.69008e-07
-4.24764e-07
4.42584e-07
-4.4331e-07
4.14549e-07
-4.59278e-07
3.8513e-07
-4.71834e-07
3.54666e-07
-4.80063e-07
3.23596e-07
-4.83222e-07
2.92415e-07
-4.81091e-07
2.61598e-07
-4.74212e-07
2.3155e-07
-4.63829e-07
2.0252e-07
-4.51451e-07
1.74622e-07
-4.38417e-07
1.47879e-07
-4.2564e-07
1.22252e-07
-4.13582e-07
9.76806e-08
-4.02374e-07
7.40928e-08
-3.91939e-07
5.1453e-08
-3.82128e-07
2.97821e-08
-3.72813e-07
9.07126e-09
-3.63834e-07
-1.06987e-08
-3.55018e-07
-2.95471e-08
-3.46285e-07
-4.7484e-08
-3.37566e-07
-6.45112e-08
-3.28756e-07
-8.06341e-08
-3.19839e-07
-9.58607e-08
-3.10824e-07
-1.10203e-07
-3.01734e-07
-1.23676e-07
-2.92599e-07
-1.363e-07
-2.83458e-07
-1.48101e-07
-2.74353e-07
-1.59106e-07
-2.65332e-07
-1.69347e-07
-2.56443e-07
-1.78862e-07
-2.47734e-07
-1.87694e-07
-2.39254e-07
-1.95894e-07
-2.31053e-07
-2.03522e-07
-2.23184e-07
-2.10653e-07
-2.15709e-07
-2.17383e-07
-2.08707e-07
-2.23834e-07
-2.02288e-07
-2.30155e-07
-1.96739e-07
-2.366e-07
-1.9218e-07
-2.43366e-07
-1.89212e-07
-2.50678e-07
-1.89019e-07
-2.58583e-07
-1.94179e-07
-2.67603e-07
-2.04392e-07
-2.7794e-07
-2.17781e-07
-2.89682e-07
-2.33528e-07
-3.02911e-07
-2.51304e-07
-3.17745e-07
-2.71049e-07
-3.34358e-07
-2.92858e-07
-3.52997e-07
-3.16866e-07
-3.73978e-07
-3.43052e-07
-3.97458e-07
-3.72419e-07
-4.23971e-07
-4.07132e-07
-4.53832e-07
-4.45775e-07
-4.87295e-07
-4.87547e-07
-5.24484e-07
-5.30452e-07
-5.65231e-07
-5.71164e-07
-6.08929e-07
-6.05479e-07
-6.54517e-07
-6.29637e-07
-7.00677e-07
-6.41833e-07
-7.46156e-07
-6.42687e-07
-7.90004e-07
-6.34414e-07
-8.31624e-07
-6.1959e-07
-8.70703e-07
-6.00363e-07
-9.07124e-07
-5.78253e-07
-9.40877e-07
-5.54233e-07
-9.72012e-07
-5.28915e-07
-1.00059e-06
-5.02684e-07
-1.02661e-06
-4.75822e-07
-1.05012e-06
-4.48405e-07
-1.07119e-06
-4.20505e-07
-1.08994e-06
-3.92216e-07
-1.10648e-06
-3.63625e-07
-1.12096e-06
-3.34809e-07
-1.13353e-06
-3.05833e-07
-1.14435e-06
-2.76752e-07
-1.15355e-06
-2.47612e-07
-1.16129e-06
-2.18448e-07
-1.16771e-06
-1.89285e-07
-1.17292e-06
-1.60139e-07
-1.17703e-06
-1.31016e-07
-1.18012e-06
-1.01914e-07
-1.18226e-06
-7.28252e-08
-1.18347e-06
-4.37371e-08
-1.46066e-08
6.57911e-07
-1.33702e-08
6.56087e-07
-4.00352e-08
6.53057e-07
-6.65934e-08
6.48776e-07
-9.30201e-08
6.43192e-07
-1.19284e-07
6.36244e-07
-1.45345e-07
6.27868e-07
-1.71158e-07
6.18005e-07
-1.96673e-07
6.06602e-07
-2.21833e-07
5.93623e-07
-2.46573e-07
5.79048e-07
-2.70828e-07
5.62877e-07
-2.94521e-07
5.45105e-07
-3.17565e-07
5.25659e-07
-3.39848e-07
5.04518e-07
-3.61219e-07
4.81702e-07
-3.81475e-07
4.57265e-07
-4.00327e-07
4.3131e-07
-4.17355e-07
4.04e-07
-4.31968e-07
3.75577e-07
-4.4341e-07
3.46366e-07
-4.50852e-07
3.16772e-07
-4.53628e-07
2.8723e-07
-4.5155e-07
2.58143e-07
-4.45125e-07
2.29815e-07
-4.355e-07
2.0242e-07
-4.24056e-07
1.76024e-07
-4.12021e-07
1.50622e-07
-4.00238e-07
1.2617e-07
-3.8913e-07
1.02611e-07
-3.78815e-07
7.9928e-08
-3.69257e-07
5.81181e-08
-3.60319e-07
3.7135e-08
-3.5183e-07
1.6906e-08
-3.43605e-07
-2.57813e-09
-3.35534e-07
-2.13215e-08
-3.27541e-07
-3.93103e-08
-3.19577e-07
-5.65322e-08
-3.11534e-07
-7.29804e-08
-3.03391e-07
-8.8652e-08
-2.95153e-07
-1.03549e-07
-2.86836e-07
-1.1768e-07
-2.78467e-07
-1.3106e-07
-2.70078e-07
-1.43707e-07
-2.61706e-07
-1.55647e-07
-2.53392e-07
-1.66911e-07
-2.45178e-07
-1.77541e-07
-2.37105e-07
-1.87582e-07
-2.29213e-07
-1.97092e-07
-2.21543e-07
-2.06136e-07
-2.14141e-07
-2.14791e-07
-2.07054e-07
-2.23148e-07
-2.0035e-07
-2.31309e-07
-1.94127e-07
-2.39384e-07
-1.88664e-07
-2.47542e-07
-1.84022e-07
-2.55863e-07
-1.8089e-07
-2.64429e-07
-1.80453e-07
-2.73233e-07
-1.85374e-07
-2.82825e-07
-1.948e-07
-2.93494e-07
-2.07112e-07
-3.05414e-07
-2.21608e-07
-3.18711e-07
-2.38006e-07
-3.33505e-07
-2.56256e-07
-3.49919e-07
-2.76444e-07
-3.68107e-07
-2.98679e-07
-3.88216e-07
-3.22943e-07
-4.10199e-07
-3.50435e-07
-4.34488e-07
-3.82842e-07
-4.61437e-07
-4.18827e-07
-4.91398e-07
-4.57586e-07
-5.2463e-07
-4.9722e-07
-5.61168e-07
-5.34626e-07
-6.00667e-07
-5.6598e-07
-6.42333e-07
-5.87971e-07
-6.85068e-07
-5.99098e-07
-7.27748e-07
-6.00007e-07
-7.69455e-07
-5.92708e-07
-8.09554e-07
-5.79491e-07
-8.47652e-07
-5.62265e-07
-8.83536e-07
-5.42369e-07
-9.17109e-07
-5.2066e-07
-9.48353e-07
-4.97671e-07
-9.77304e-07
-4.73733e-07
-1.00407e-06
-4.49055e-07
-1.0287e-06
-4.23777e-07
-1.05121e-06
-3.97997e-07
-1.07163e-06
-3.71792e-07
-1.09003e-06
-3.45229e-07
-1.10647e-06
-3.18368e-07
-1.12104e-06
-2.9126e-07
-1.13384e-06
-2.63955e-07
-1.14495e-06
-2.36494e-07
-1.15449e-06
-2.08911e-07
-1.16254e-06
-1.81234e-07
-1.1692e-06
-1.53485e-07
-1.17453e-06
-1.2568e-07
-1.17862e-06
-9.78293e-08
-1.1815e-06
-6.99377e-08
-1.18324e-06
-4.20055e-08
-1.40205e-08
6.5788e-07
-1.27167e-08
6.55907e-07
-3.8062e-08
6.52602e-07
-6.32881e-08
6.47947e-07
-8.83651e-08
6.41916e-07
-1.13253e-07
6.34481e-07
-1.37909e-07
6.25608e-07
-1.62286e-07
6.15266e-07
-1.86332e-07
6.03425e-07
-2.09992e-07
5.90059e-07
-2.33207e-07
5.75142e-07
-2.55911e-07
5.58655e-07
-2.78034e-07
5.40585e-07
-2.99496e-07
5.20937e-07
-3.202e-07
4.99735e-07
-3.40018e-07
4.77032e-07
-3.58772e-07
4.52903e-07
-3.76199e-07
4.2746e-07
-3.91912e-07
4.0086e-07
-4.05368e-07
3.73317e-07
-4.15867e-07
3.45114e-07
-4.22649e-07
3.16592e-07
-4.25106e-07
2.88117e-07
-4.23075e-07
2.60032e-07
-4.1704e-07
2.32595e-07
-4.08064e-07
2.05961e-07
-3.97422e-07
1.80191e-07
-3.86252e-07
1.55289e-07
-3.75335e-07
1.31231e-07
-3.65072e-07
1.08009e-07
-3.55593e-07
8.55886e-08
-3.46837e-07
6.39318e-08
-3.38662e-07
4.29861e-08
-3.30884e-07
2.27454e-08
-3.23365e-07
3.2046e-09
-3.15993e-07
-1.56417e-08
-3.08695e-07
-3.37935e-08
-3.01425e-07
-5.12476e-08
-2.9408e-07
-6.80036e-08
-2.86635e-07
-8.40633e-08
-2.79093e-07
-9.9432e-08
-2.71468e-07
-1.14119e-07
-2.6378e-07
-1.28137e-07
-2.5606e-07
-1.41505e-07
-2.48338e-07
-1.54248e-07
-2.4065e-07
-1.66395e-07
-2.33031e-07
-1.77985e-07
-2.25515e-07
-1.89061e-07
-2.18137e-07
-1.99672e-07
-2.10932e-07
-2.09878e-07
-2.03936e-07
-2.1974e-07
-1.97191e-07
-2.29332e-07
-1.90758e-07
-2.3873e-07
-1.8473e-07
-2.48017e-07
-1.79376e-07
-2.57274e-07
-1.74766e-07
-2.66567e-07
-1.71598e-07
-2.75939e-07
-1.71081e-07
-2.85421e-07
-1.75893e-07
-2.95519e-07
-1.84703e-07
-3.0652e-07
-1.96111e-07
-3.18614e-07
-2.09514e-07
-3.31945e-07
-2.24676e-07
-3.46637e-07
-2.41564e-07
-3.62817e-07
-2.60263e-07
-3.80637e-07
-2.80859e-07
-4.00227e-07
-3.03354e-07
-4.21561e-07
-3.29101e-07
-4.45092e-07
-3.59311e-07
-4.71112e-07
-3.92807e-07
-4.99911e-07
-4.28787e-07
-5.31693e-07
-4.65438e-07
-5.6645e-07
-4.99868e-07
-6.03841e-07
-5.28589e-07
-6.43158e-07
-5.48654e-07
-6.83466e-07
-5.5879e-07
-7.23826e-07
-5.59646e-07
-7.63474e-07
-5.5306e-07
-8.01864e-07
-5.411e-07
-8.38647e-07
-5.25482e-07
-8.73607e-07
-5.07409e-07
-9.06616e-07
-4.87651e-07
-9.37607e-07
-4.6668e-07
-9.66553e-07
-4.44786e-07
-9.93462e-07
-4.22146e-07
-1.01836e-06
-3.98878e-07
-1.04129e-06
-3.75071e-07
-1.06228e-06
-3.50797e-07
-1.08139e-06
-3.26118e-07
-1.09867e-06
-3.01088e-07
-1.11417e-06
-2.75758e-07
-1.12796e-06
-2.50172e-07
-1.14008e-06
-2.24368e-07
-1.15061e-06
-1.98383e-07
-1.1596e-06
-1.72245e-07
-1.16711e-06
-1.4598e-07
-1.17318e-06
-1.1961e-07
-1.17785e-06
-9.31507e-08
-1.18118e-06
-6.66173e-08
-1.18316e-06
-4.00202e-08
-1.33597e-08
6.57814e-07
-1.19971e-08
6.55666e-07
-3.59136e-08
6.52088e-07
-5.97106e-08
6.47072e-07
-8.33488e-08
6.40604e-07
-1.06785e-07
6.32669e-07
-1.29974e-07
6.23252e-07
-1.52869e-07
6.12339e-07
-1.75419e-07
5.99919e-07
-1.97572e-07
5.85987e-07
-2.19274e-07
5.70544e-07
-2.40468e-07
5.53599e-07
-2.61089e-07
5.35171e-07
-2.81068e-07
5.15289e-07
-3.00317e-07
4.93993e-07
-3.18721e-07
4.71338e-07
-3.36117e-07
4.47404e-07
-3.52264e-07
4.22299e-07
-3.66807e-07
3.96175e-07
-3.79244e-07
3.69239e-07
-3.88931e-07
3.41757e-07
-3.95168e-07
3.14048e-07
-3.97396e-07
2.86444e-07
-3.95471e-07
2.59245e-07
-3.89841e-07
2.32662e-07
-3.81481e-07
2.06822e-07
-3.71582e-07
1.81778e-07
-3.61208e-07
1.57533e-07
-3.51089e-07
1.34069e-07
-3.41608e-07
1.11347e-07
-3.3287e-07
8.93084e-08
-3.24798e-07
6.7912e-08
-3.17265e-07
4.71472e-08
-3.1012e-07
2.70068e-08
-3.03224e-07
7.48654e-09
-2.96473e-07
-1.14137e-08
-2.89795e-07
-2.96965e-08
-2.83142e-07
-4.73583e-08
-2.76418e-07
-6.43971e-08
-2.69596e-07
-8.08135e-08
-2.62677e-07
-9.66109e-08
-2.5567e-07
-1.11796e-07
-2.48595e-07
-1.2638e-07
-2.41476e-07
-1.4038e-07
-2.34338e-07
-1.53817e-07
-2.27213e-07
-1.66718e-07
-2.2013e-07
-1.79113e-07
-2.13119e-07
-1.91039e-07
-2.06211e-07
-2.02536e-07
-1.99435e-07
-2.13648e-07
-1.92823e-07
-2.24426e-07
-1.86414e-07
-2.3492e-07
-1.80264e-07
-2.45185e-07
-1.74465e-07
-2.55281e-07
-1.6928e-07
-2.65262e-07
-1.64785e-07
-2.75181e-07
-1.61679e-07
-2.85087e-07
-1.61174e-07
-2.95087e-07
-1.65893e-07
-3.05625e-07
-1.74165e-07
-3.16962e-07
-1.84775e-07
-3.29275e-07
-1.972e-07
-3.42706e-07
-2.11245e-07
-3.57376e-07
-2.26894e-07
-3.73408e-07
-2.44232e-07
-3.90942e-07
-2.63324e-07
-4.10085e-07
-2.84211e-07
-4.30829e-07
-3.08358e-07
-4.53596e-07
-3.36544e-07
-4.78642e-07
-3.67761e-07
-5.06219e-07
-4.01209e-07
-5.36505e-07
-4.35152e-07
-5.695e-07
-4.66873e-07
-6.04919e-07
-4.9317e-07
-6.42167e-07
-5.11406e-07
-6.80445e-07
-5.20512e-07
-7.18936e-07
-5.21155e-07
-7.56955e-07
-5.15042e-07
-7.93999e-07
-5.04056e-07
-8.29732e-07
-4.89748e-07
-8.63941e-07
-4.73201e-07
-8.96489e-07
-4.55102e-07
-9.27295e-07
-4.35874e-07
-9.5631e-07
-4.15772e-07
-9.83505e-07
-3.94951e-07
-1.00887e-06
-3.73516e-07
-1.0324e-06
-3.51542e-07
-1.0541e-06
-3.29092e-07
-1.074e-06
-3.06218e-07
-1.09212e-06
-2.82968e-07
-1.10849e-06
-2.59386e-07
-1.12315e-06
-2.35513e-07
-1.13614e-06
-2.11384e-07
-1.14748e-06
-1.87036e-07
-1.15723e-06
-1.62497e-07
-1.16542e-06
-1.37795e-07
-1.17207e-06
-1.12956e-07
-1.17722e-06
-8.80012e-08
-1.18089e-06
-6.29502e-08
-1.18309e-06
-3.78207e-08
-1.26242e-08
6.57788e-07
-1.12515e-08
6.55554e-07
-3.3679e-08
6.51831e-07
-5.59885e-08
6.46621e-07
-7.81388e-08
6.39922e-07
-1.00086e-07
6.31731e-07
-1.21784e-07
6.22048e-07
-1.43186e-07
6.10874e-07
-1.64244e-07
5.98213e-07
-1.8491e-07
5.84071e-07
-2.05133e-07
5.68461e-07
-2.24858e-07
5.51401e-07
-2.44029e-07
5.32913e-07
-2.6258e-07
5.13029e-07
-2.80434e-07
4.91793e-07
-2.97485e-07
4.69262e-07
-3.13586e-07
4.45513e-07
-3.28515e-07
4.20653e-07
-3.41946e-07
3.94827e-07
-3.53418e-07
3.68233e-07
-3.62338e-07
3.41127e-07
-3.68061e-07
3.13809e-07
-3.70079e-07
2.866e-07
-3.68262e-07
2.59786e-07
-3.63027e-07
2.33579e-07
-3.55273e-07
2.08105e-07
-3.46108e-07
1.83411e-07
-3.36514e-07
1.59489e-07
-3.27167e-07
1.36298e-07
-3.18417e-07
1.13779e-07
-3.10351e-07
9.18976e-08
-3.02917e-07
7.06252e-08
-2.95993e-07
4.99415e-08
-2.89436e-07
2.9834e-08
-2.83117e-07
1.02957e-08
-2.76934e-07
-8.67771e-09
-2.70821e-07
-2.70886e-08
-2.64731e-07
-4.49345e-08
-2.58572e-07
-6.22136e-08
-2.52317e-07
-7.89251e-08
-2.45965e-07
-9.50713e-08
-2.39524e-07
-1.10658e-07
-2.33009e-07
-1.25694e-07
-2.26439e-07
-1.40193e-07
-2.19839e-07
-1.54172e-07
-2.13234e-07
-1.67651e-07
-2.06651e-07
-1.80654e-07
-2.00116e-07
-1.9321e-07
-1.93656e-07
-2.05348e-07
-1.87296e-07
-2.17104e-07
-1.81067e-07
-2.28512e-07
-1.75005e-07
-2.39611e-07
-1.69165e-07
-2.50437e-07
-1.63639e-07
-2.6104e-07
-1.58676e-07
-2.7146e-07
-1.54365e-07
-2.8175e-07
-1.51389e-07
-2.91974e-07
-1.5095e-07
-3.02327e-07
-1.5554e-07
-3.13188e-07
-1.63303e-07
-3.24787e-07
-1.73175e-07
-3.37287e-07
-1.847e-07
-3.50823e-07
-1.9771e-07
-3.65501e-07
-2.12216e-07
-3.81448e-07
-2.28285e-07
-3.98801e-07
-2.45971e-07
-4.1766e-07
-2.65351e-07
-4.38063e-07
-2.87955e-07
-4.60418e-07
-3.14189e-07
-4.84978e-07
-3.43202e-07
-5.11982e-07
-3.74205e-07
-5.4159e-07
-4.05544e-07
-5.73781e-07
-4.34682e-07
-6.0826e-07
-4.58691e-07
-6.44449e-07
-4.75217e-07
-6.81597e-07
-4.83365e-07
-7.18948e-07
-4.83804e-07
-7.55878e-07
-4.78112e-07
-7.91929e-07
-4.68005e-07
-8.26797e-07
-4.5488e-07
-8.60284e-07
-4.39714e-07
-8.92263e-07
-4.23124e-07
-9.22651e-07
-4.05485e-07
-9.51398e-07
-3.87025e-07
-9.78467e-07
-3.67882e-07
-1.00384e-06
-3.48146e-07
-1.0275e-06
-3.27883e-07
-1.04944e-06
-3.07149e-07
-1.06967e-06
-2.85988e-07
-1.08819e-06
-2.64444e-07
-1.10502e-06
-2.42557e-07
-1.12017e-06
-2.20363e-07
-1.13366e-06
-1.97897e-07
-1.1455e-06
-1.75191e-07
-1.15572e-06
-1.52276e-07
-1.16434e-06
-1.2918e-07
-1.17137e-06
-1.0593e-07
-1.17682e-06
-8.25484e-08
-1.18071e-06
-5.90602e-08
-1.18304e-06
-3.54866e-08
-1.1845e-08
6.57763e-07
-1.0481e-08
6.55458e-07
-3.13735e-08
6.51622e-07
-5.2153e-08
6.4626e-07
-7.2777e-08
6.39376e-07
-9.32017e-08
6.30976e-07
-1.13383e-07
6.21065e-07
-1.33275e-07
6.09653e-07
-1.52833e-07
5.96754e-07
-1.72011e-07
5.82383e-07
-1.90762e-07
5.66561e-07
-2.09037e-07
5.49317e-07
-2.26784e-07
5.30683e-07
-2.43946e-07
5.107e-07
-2.60452e-07
4.89422e-07
-2.76207e-07
4.66912e-07
-2.91076e-07
4.43254e-07
-3.04858e-07
4.1856e-07
-3.17252e-07
3.92976e-07
-3.27834e-07
3.66695e-07
-3.36056e-07
3.39959e-07
-3.41325e-07
3.13049e-07
-3.43169e-07
2.8626e-07
-3.41473e-07
2.59857e-07
-3.36623e-07
2.34038e-07
-3.29454e-07
2.08914e-07
-3.20984e-07
1.84523e-07
-3.12123e-07
1.60851e-07
-3.03495e-07
1.37857e-07
-2.95423e-07
1.15501e-07
-2.87995e-07
9.37458e-08
-2.81162e-07
7.25605e-08
-2.74808e-07
5.19232e-08
-2.68798e-07
3.182e-08
-2.63013e-07
1.2243e-08
-2.57357e-07
-6.81241e-09
-2.51766e-07
-2.53486e-08
-2.46195e-07
-4.33626e-08
-2.40558e-07
-6.08514e-08
-2.34828e-07
-7.78136e-08
-2.29003e-07
-9.42501e-08
-2.23088e-07
-1.10165e-07
-2.17094e-07
-1.25564e-07
-2.11041e-07
-1.40456e-07
-2.04947e-07
-1.54853e-07
-1.98837e-07
-1.68771e-07
-1.92733e-07
-1.82228e-07
-1.86659e-07
-1.95244e-07
-1.8064e-07
-2.07842e-07
-1.74698e-07
-2.20047e-07
-1.68862e-07
-2.31887e-07
-1.63166e-07
-2.43388e-07
-1.57664e-07
-2.54577e-07
-1.5245e-07
-2.655e-07
-1.47753e-07
-2.7619e-07
-1.43675e-07
-2.86704e-07
-1.40876e-07
-2.97125e-07
-1.40529e-07
-3.07728e-07
-1.44938e-07
-3.18836e-07
-1.52194e-07
-3.30652e-07
-1.6136e-07
-3.43322e-07
-1.7203e-07
-3.56971e-07
-1.8406e-07
-3.71716e-07
-1.97471e-07
-3.8767e-07
-2.1233e-07
-4.04966e-07
-2.28675e-07
-4.23703e-07
-2.46615e-07
-4.43959e-07
-2.67698e-07
-4.66116e-07
-2.92032e-07
-4.9041e-07
-3.18908e-07
-5.17052e-07
-3.47563e-07
-5.46168e-07
-3.76428e-07
-5.77705e-07
-4.03145e-07
-6.11367e-07
-4.2503e-07
-6.46609e-07
-4.39974e-07
-6.82747e-07
-4.47227e-07
-7.191e-07
-4.4745e-07
-7.55105e-07
-4.42108e-07
-7.90343e-07
-4.32766e-07
-8.24529e-07
-4.20695e-07
-8.57471e-07
-4.06772e-07
-8.89041e-07
-3.91554e-07
-9.19152e-07
-3.75375e-07
-9.47739e-07
-3.58438e-07
-9.74757e-07
-3.40863e-07
-1.00017e-06
-3.2273e-07
-1.02396e-06
-3.04095e-07
-1.04611e-06
-2.85005e-07
-1.06659e-06
-2.655e-07
-1.08542e-06
-2.45618e-07
-1.10258e-06
-2.25394e-07
-1.11809e-06
-2.04861e-07
-1.13193e-06
-1.84052e-07
-1.14412e-06
-1.62997e-07
-1.15467e-06
-1.41726e-07
-1.16359e-06
-1.20266e-07
-1.17087e-06
-9.86438e-08
-1.17654e-06
-7.68855e-08
-1.18058e-06
-5.50156e-08
-1.18301e-06
-3.30581e-08
-1.10339e-08
6.5775e-07
-9.69706e-09
6.55403e-07
-2.90265e-08
6.51499e-07
-4.82492e-08
6.46046e-07
-6.73237e-08
6.39052e-07
-8.62079e-08
6.30528e-07
-1.04859e-07
6.20489e-07
-1.23235e-07
6.08949e-07
-1.41293e-07
5.95929e-07
-1.58991e-07
5.81451e-07
-1.76284e-07
5.65544e-07
-1.93129e-07
5.48239e-07
-2.09479e-07
5.29573e-07
-2.2528e-07
5.09591e-07
-2.4047e-07
4.88345e-07
-2.54961e-07
4.659e-07
-2.68631e-07
4.42338e-07
-2.81295e-07
4.17765e-07
-2.9268e-07
3.92324e-07
-3.02393e-07
3.66202e-07
-3.09935e-07
3.39639e-07
-3.14761e-07
3.12911e-07
-3.16442e-07
2.86308e-07
-3.14871e-07
2.6009e-07
-3.10405e-07
2.34448e-07
-3.03812e-07
2.0949e-07
-2.96027e-07
1.85252e-07
-2.87885e-07
1.61719e-07
-2.79962e-07
1.3885e-07
-2.72554e-07
1.16599e-07
-2.65745e-07
9.49247e-08
-2.59488e-07
7.37923e-08
-2.53675e-07
5.31782e-08
-2.48184e-07
3.3067e-08
-2.42902e-07
1.34501e-08
-2.37741e-07
-5.67733e-09
-2.32639e-07
-2.43177e-08
-2.27555e-07
-4.24682e-08
-2.22408e-07
-6.01252e-08
-2.17171e-07
-7.72862e-08
-2.11842e-07
-9.39504e-08
-2.06423e-07
-1.10118e-07
-2.00926e-07
-1.25793e-07
-1.95366e-07
-1.40981e-07
-1.8976e-07
-1.55688e-07
-1.84129e-07
-1.69927e-07
-1.78494e-07
-1.8371e-07
-1.72876e-07
-1.97053e-07
-1.67298e-07
-2.0997e-07
-1.6178e-07
-2.22483e-07
-1.5635e-07
-2.34609e-07
-1.5104e-07
-2.46373e-07
-1.45901e-07
-2.57794e-07
-1.41029e-07
-2.68914e-07
-1.36633e-07
-2.79767e-07
-1.32822e-07
-2.90414e-07
-1.30229e-07
-3.00958e-07
-1.29985e-07
-3.11735e-07
-1.34161e-07
-3.23028e-07
-1.40902e-07
-3.35016e-07
-1.49372e-07
-3.47833e-07
-1.59213e-07
-3.61589e-07
-1.70304e-07
-3.76406e-07
-1.82654e-07
-3.92396e-07
-1.9634e-07
-4.09685e-07
-2.11386e-07
-4.28375e-07
-2.27925e-07
-4.48586e-07
-2.47488e-07
-4.7067e-07
-2.69948e-07
-4.94856e-07
-2.94722e-07
-5.21341e-07
-3.21078e-07
-5.50228e-07
-3.47541e-07
-5.81442e-07
-3.7193e-07
-6.14674e-07
-3.91798e-07
-6.49388e-07
-4.05261e-07
-6.84925e-07
-4.1169e-07
-7.20644e-07
-4.11731e-07
-7.56016e-07
-4.06735e-07
-7.90655e-07
-3.98128e-07
-8.24295e-07
-3.87054e-07
-8.5676e-07
-3.74307e-07
-8.87931e-07
-3.60383e-07
-9.17722e-07
-3.45585e-07
-9.46071e-07
-3.30089e-07
-9.72931e-07
-3.14004e-07
-9.98263e-07
-2.97398e-07
-1.02204e-06
-2.80322e-07
-1.04422e-06
-2.62815e-07
-1.06481e-06
-2.44914e-07
-1.08378e-06
-2.26652e-07
-1.10111e-06
-2.08058e-07
-1.11681e-06
-1.89165e-07
-1.13086e-06
-1.70001e-07
-1.14326e-06
-1.50595e-07
-1.15402e-06
-1.30974e-07
-1.16312e-06
-1.11165e-07
-1.17056e-06
-9.11955e-08
-1.17636e-06
-7.10897e-08
-1.1805e-06
-5.0873e-08
-1.18299e-06
-3.05699e-08
-1.02032e-08
6.5774e-07
-8.90291e-09
6.55363e-07
-2.66497e-08
6.51411e-07
-4.4297e-08
6.45892e-07
-6.18056e-08
6.3882e-07
-7.91353e-08
6.30207e-07
-9.62466e-08
6.20072e-07
-1.131e-07
6.08433e-07
-1.29655e-07
5.95316e-07
-1.45873e-07
5.80747e-07
-1.61715e-07
5.64757e-07
-1.7714e-07
5.47383e-07
-1.92105e-07
5.28666e-07
-2.06563e-07
5.08652e-07
-2.20457e-07
4.87399e-07
-2.33708e-07
4.64974e-07
-2.46205e-07
4.41459e-07
-2.57781e-07
4.16965e-07
-2.68185e-07
3.91632e-07
-2.7706e-07
3.65647e-07
-2.83949e-07
3.39241e-07
-2.88355e-07
3.12684e-07
-2.89885e-07
2.86255e-07
-2.88442e-07
2.60204e-07
-2.84354e-07
2.34715e-07
-2.78323e-07
2.09892e-07
-2.71204e-07
1.85771e-07
-2.63764e-07
1.62336e-07
-2.56527e-07
1.39547e-07
-2.49765e-07
1.17358e-07
-2.43555e-07
9.57248e-08
-2.37855e-07
7.46135e-08
-2.32564e-07
5.39993e-08
-2.2757e-07
3.38659e-08
-2.22769e-07
1.42039e-08
-2.18079e-07
-4.99194e-09
-2.13443e-07
-2.37245e-08
-2.08822e-07
-4.19905e-08
-2.04142e-07
-5.97855e-08
-1.99376e-07
-7.71055e-08
-1.94522e-07
-9.39475e-08
-1.89581e-07
-1.1031e-07
-1.84564e-07
-1.26194e-07
-1.79482e-07
-1.41601e-07
-1.74352e-07
-1.56537e-07
-1.69193e-07
-1.71009e-07
-1.64022e-07
-1.85025e-07
-1.5886e-07
-1.98596e-07
-1.53727e-07
-2.11735e-07
-1.48642e-07
-2.24455e-07
-1.43629e-07
-2.36773e-07
-1.38722e-07
-2.48707e-07
-1.33967e-07
-2.60275e-07
-1.2946e-07
-2.71519e-07
-1.2539e-07
-2.82471e-07
-1.21869e-07
-2.93202e-07
-1.19498e-07
-3.0383e-07
-1.19356e-07
-3.14732e-07
-1.23259e-07
-3.26161e-07
-1.29472e-07
-3.38282e-07
-1.37251e-07
-3.51221e-07
-1.46275e-07
-3.65087e-07
-1.56438e-07
-3.79991e-07
-1.67751e-07
-3.96045e-07
-1.80286e-07
-4.13373e-07
-1.94057e-07
-4.3208e-07
-2.09218e-07
-4.52321e-07
-2.27247e-07
-4.74422e-07
-2.47847e-07
-4.98602e-07
-2.70543e-07
-5.25038e-07
-2.94641e-07
-5.5381e-07
-3.1877e-07
-5.84816e-07
-3.40923e-07
-6.17736e-07
-3.58878e-07
-6.5204e-07
-3.70956e-07
-6.871e-07
-3.7663e-07
-7.22313e-07
-3.76519e-07
-7.57184e-07
-3.71865e-07
-7.91352e-07
-3.6396e-07
-8.24568e-07
-3.53838e-07
-8.56664e-07
-3.4221e-07
-8.87524e-07
-3.29523e-07
-9.17065e-07
-3.16044e-07
-9.45222e-07
-3.01931e-07
-9.71946e-07
-2.8728e-07
-9.97194e-07
-2.7215e-07
-1.02093e-06
-2.56585e-07
-1.04312e-06
-2.40621e-07
-1.06375e-06
-2.24287e-07
-1.08279e-06
-2.07613e-07
-1.10022e-06
-1.90627e-07
-1.11603e-06
-1.73356e-07
-1.1302e-06
-1.55827e-07
-1.14273e-06
-1.38066e-07
-1.15361e-06
-1.20099e-07
-1.16282e-06
-1.01951e-07
-1.17037e-06
-8.36466e-08
-1.17625e-06
-6.52113e-08
-1.18045e-06
-4.66693e-08
-1.18298e-06
-2.80444e-08
-9.36001e-09
6.57733e-07
-8.10262e-09
6.55338e-07
-2.42541e-08
6.51355e-07
-4.03143e-08
6.45796e-07
-5.62465e-08
6.38674e-07
-7.20135e-08
6.30006e-07
-8.75786e-08
6.19812e-07
-1.02905e-07
6.08115e-07
-1.17958e-07
5.94942e-07
-1.327e-07
5.80322e-07
-1.47095e-07
5.64291e-07
-1.61108e-07
5.46885e-07
-1.747e-07
5.2815e-07
-1.87827e-07
5.08133e-07
-2.0044e-07
4.86891e-07
-2.12466e-07
4.64492e-07
-2.23806e-07
4.41018e-07
-2.34308e-07
4.16577e-07
-2.43744e-07
3.91309e-07
-2.51792e-07
3.65397e-07
-2.58037e-07
3.39071e-07
-2.62029e-07
3.12598e-07
-2.63412e-07
2.86255e-07
-2.62099e-07
2.60289e-07
-2.58388e-07
2.34881e-07
-2.52915e-07
2.10135e-07
-2.46458e-07
1.86082e-07
-2.39711e-07
1.62706e-07
-2.33151e-07
1.39966e-07
-2.27025e-07
1.17814e-07
-2.21403e-07
9.6204e-08
-2.16245e-07
7.51011e-08
-2.11461e-07
5.44792e-08
-2.06948e-07
3.43215e-08
-2.02611e-07
1.4618e-08
-1.98375e-07
-4.63676e-09
-1.94188e-07
-2.34454e-08
-1.90014e-07
-4.18039e-08
-1.85783e-07
-5.97069e-08
-1.81473e-07
-7.71489e-08
-1.7708e-07
-9.41257e-08
-1.72605e-07
-1.10634e-07
-1.68056e-07
-1.26672e-07
-1.63444e-07
-1.4224e-07
-1.58784e-07
-1.57341e-07
-1.54092e-07
-1.71978e-07
-1.49385e-07
-1.86158e-07
-1.44681e-07
-1.99888e-07
-1.39997e-07
-2.13177e-07
-1.35352e-07
-2.26037e-07
-1.30769e-07
-2.38481e-07
-1.26278e-07
-2.50524e-07
-1.21924e-07
-2.62186e-07
-1.17798e-07
-2.73505e-07
-1.1407e-07
-2.84521e-07
-1.10853e-07
-2.95304e-07
-1.08716e-07
-3.05997e-07
-1.08663e-07
-3.16992e-07
-1.12264e-07
-3.28524e-07
-1.1794e-07
-3.40749e-07
-1.25025e-07
-3.53788e-07
-1.33236e-07
-3.67746e-07
-1.42479e-07
-3.82732e-07
-1.52766e-07
-3.98856e-07
-1.64161e-07
-4.1624e-07
-1.76673e-07
-4.34992e-07
-1.90466e-07
-4.55298e-07
-2.06941e-07
-4.7746e-07
-2.25685e-07
-5.01687e-07
-2.46316e-07
-5.28145e-07
-2.68183e-07
-5.56892e-07
-2.90023e-07
-5.87809e-07
-3.10006e-07
-6.20559e-07
-3.26129e-07
-6.54615e-07
-3.369e-07
-6.89366e-07
-3.41879e-07
-7.24231e-07
-3.41654e-07
-7.58741e-07
-3.37354e-07
-7.92555e-07
-3.30146e-07
-8.25438e-07
-3.20955e-07
-8.57231e-07
-3.10417e-07
-8.87824e-07
-2.9893e-07
-9.17137e-07
-2.86732e-07
-9.45106e-07
-2.73962e-07
-9.71681e-07
-2.60705e-07
-9.96819e-07
-2.47013e-07
-1.02048e-06
-2.32923e-07
-1.04263e-06
-2.18468e-07
-1.06325e-06
-2.03672e-07
-1.0823e-06
-1.88563e-07
-1.09976e-06
-1.73164e-07
-1.11562e-06
-1.57501e-07
-1.12985e-06
-1.41596e-07
-1.14244e-06
-1.25474e-07
-1.15338e-06
-1.09159e-07
-1.16266e-06
-9.26738e-08
-1.17026e-06
-7.60419e-08
-1.17619e-06
-5.92867e-08
-1.18042e-06
-4.2431e-08
-1.18297e-06
-2.54979e-08
-8.5099e-09
6.57729e-07
-7.29807e-09
6.55321e-07
-2.18459e-08
6.51318e-07
-3.6311e-08
6.45731e-07
-5.06597e-08
6.38575e-07
-6.48581e-08
6.2987e-07
-7.88728e-08
6.19635e-07
-9.26708e-08
6.07896e-07
-1.06219e-07
5.94682e-07
-1.19486e-07
5.80025e-07
-1.32438e-07
5.63961e-07
-1.45044e-07
5.46529e-07
-1.57268e-07
5.27774e-07
-1.69073e-07
5.07747e-07
-1.80413e-07
4.86505e-07
-1.91224e-07
4.64117e-07
-2.01417e-07
4.40666e-07
-2.10856e-07
4.16259e-07
-2.19337e-07
3.91036e-07
-2.26569e-07
3.65179e-07
-2.3218e-07
3.38915e-07
-2.35766e-07
3.12509e-07
-2.37006e-07
2.86234e-07
-2.35823e-07
2.60331e-07
-2.32486e-07
2.34982e-07
-2.27566e-07
2.10288e-07
-2.21764e-07
1.86279e-07
-2.15702e-07
1.62939e-07
-2.09811e-07
1.40225e-07
-2.04312e-07
1.1809e-07
-1.99267e-07
9.6487e-08
-1.94642e-07
7.53802e-08
-1.90354e-07
5.4743e-08
-1.86311e-07
3.4558e-08
-1.82426e-07
1.48153e-08
-1.78632e-07
-4.49056e-09
-1.74882e-07
-2.33618e-08
-1.71142e-07
-4.1794e-08
-1.67351e-07
-5.9781e-08
-1.63486e-07
-7.73166e-08
-1.59544e-07
-9.4395e-08
-1.55526e-07
-1.11012e-07
-1.51439e-07
-1.27163e-07
-1.47292e-07
-1.42849e-07
-1.43099e-07
-1.58068e-07
-1.38873e-07
-1.72823e-07
-1.3463e-07
-1.87117e-07
-1.30386e-07
-2.00956e-07
-1.26157e-07
-2.14348e-07
-1.2196e-07
-2.27301e-07
-1.17816e-07
-2.39827e-07
-1.13753e-07
-2.5194e-07
-1.09811e-07
-2.6366e-07
-1.06078e-07
-2.75026e-07
-1.02704e-07
-2.86079e-07
-9.97998e-08
-2.96895e-07
-9.79e-08
-3.0764e-07
-9.79177e-08
-3.18708e-07
-1.01197e-07
-3.30321e-07
-1.06326e-07
-3.42631e-07
-1.12716e-07
-3.55753e-07
-1.20115e-07
-3.69792e-07
-1.28439e-07
-3.84854e-07
-1.37704e-07
-4.01052e-07
-1.47964e-07
-4.185e-07
-1.59225e-07
-4.37314e-07
-1.71652e-07
-4.57704e-07
-1.86551e-07
-4.79949e-07
-2.0344e-07
-5.04253e-07
-2.22012e-07
-5.30769e-07
-2.41666e-07
-5.59538e-07
-2.61255e-07
-5.9042e-07
-2.79124e-07
-6.23066e-07
-2.93482e-07
-6.56952e-07
-3.03014e-07
-6.91476e-07
-3.07355e-07
-7.26081e-07
-3.07049e-07
-7.60317e-07
-3.03118e-07
-7.93858e-07
-2.96604e-07
-8.26482e-07
-2.88331e-07
-8.58037e-07
-2.78863e-07
-8.88415e-07
-2.68552e-07
-9.1754e-07
-2.57607e-07
-9.45349e-07
-2.46153e-07
-9.71792e-07
-2.34262e-07
-9.96824e-07
-2.21981e-07
-1.02041e-06
-2.09342e-07
-1.0425e-06
-1.96372e-07
-1.06308e-06
-1.83094e-07
-1.08211e-06
-1.69531e-07
-1.09957e-06
-1.55704e-07
-1.11544e-06
-1.41635e-07
-1.12969e-06
-1.27346e-07
-1.1423e-06
-1.12857e-07
-1.15327e-06
-9.81911e-08
-1.16258e-06
-8.33684e-08
-1.17021e-06
-6.84107e-08
-1.17616e-06
-5.33393e-08
-1.18041e-06
-3.81755e-08
-1.18297e-06
-2.29408e-08
-7.65634e-09
6.57727e-07
-6.49081e-09
6.5531e-07
-1.94295e-08
6.51293e-07
-3.22943e-08
6.45689e-07
-4.50549e-08
6.38512e-07
-5.7681e-08
6.29782e-07
-7.01426e-08
6.19521e-07
-8.24101e-08
6.07756e-07
-9.44544e-08
5.94517e-07
-1.06246e-07
5.79836e-07
-1.17758e-07
5.63752e-07
-1.28959e-07
5.46305e-07
-1.39821e-07
5.2754e-07
-1.50308e-07
5.07509e-07
-1.60381e-07
4.86269e-07
-1.69984e-07
4.6389e-07
-1.79037e-07
4.40453e-07
-1.8742e-07
4.16067e-07
-1.94951e-07
3.90871e-07
-2.01373e-07
3.65045e-07
-2.06354e-07
3.38815e-07
-2.09536e-07
3.12445e-07
-2.10636e-07
2.86206e-07
-2.09584e-07
2.60339e-07
-2.06619e-07
2.35023e-07
-2.0225e-07
2.10358e-07
-1.97098e-07
1.86374e-07
-1.91718e-07
1.63053e-07
-1.8649e-07
1.40353e-07
-1.81612e-07
1.18224e-07
-1.77138e-07
9.66205e-08
-1.73038e-07
7.55053e-08
-1.69239e-07
5.48516e-08
-1.65657e-07
3.46419e-08
-1.62217e-07
1.48659e-08
-1.58856e-07
-4.48145e-09
-1.55535e-07
-2.34022e-08
-1.52222e-07
-4.18917e-08
-1.48862e-07
-5.99431e-08
-1.45435e-07
-7.75491e-08
-1.41938e-07
-9.47033e-08
-1.38372e-07
-1.114e-07
-1.34742e-07
-1.27634e-07
-1.31058e-07
-1.43404e-07
-1.27329e-07
-1.58707e-07
-1.2357e-07
-1.73545e-07
-1.19793e-07
-1.87919e-07
-1.16012e-07
-2.01833e-07
-1.12243e-07
-2.15294e-07
-1.085e-07
-2.28308e-07
-1.04802e-07
-2.40887e-07
-1.01174e-07
-2.53044e-07
-9.76542e-08
-2.64799e-07
-9.43232e-08
-2.76192e-07
-9.13114e-08
-2.87266e-07
-8.87253e-08
-2.98105e-07
-8.70613e-08
-3.08894e-07
-8.71284e-08
-3.20019e-07
-9.00713e-08
-3.31698e-07
-9.46476e-08
-3.44076e-07
-1.00339e-07