/*--------------------------------*- C++ -*----------------------------------*\
  =========                 |
  \\      /  F ield         | OpenFOAM: The Open Source CFD Toolbox
   \\    /   O peration     | Website:  https://openfoam.org
    \\  /    A nd           | Version:  10
     \\/     M anipulation  |
\*---------------------------------------------------------------------------*/
FoamFile
{
    format      ascii;
    class       volScalarField;
    location    "1";
    object      Qdot;
}
// * * * * * * * * * * * * * * * * * * * * * * * * * * * * * * * * * * * * * //

dimensions      [1 -1 -3 0 0 0 0];

internalField   nonuniform List<scalar> 
4000
(
0
0
0
0
0
0
0
0
0
0
0
0
0
0
0
0
0
0
0
0
0
0
-6.37005e-17
-1.89102e-15
-6.58258e-14
1.10282e-06
2.58788e-05
0.000478103
0.00634477
0.0607872
0.433686
2.39018
10.5529
38.4509
118.187
313.727
734.057
1545.11
2975.58
5331.69
9047.88
14817.8
23877.6
38581.5
63581.9
108322
192296
356407
684630
1.34393e+06
2.65342e+06
5.21273e+06
1.01517e+07
1.93585e+07
3.67304e+07
7.09193e+07
1.35699e+08
1.32826e+08
6.37706e+07
3.00966e+07
1.37804e+07
6.06016e+06
2.53696e+06
1.00277e+06
373602
134377
33521.8
3813.18
225.357
7.3993
0.145487
0.00208242
3.03431e-05
6.82262e-07
2.3403e-08
-2.43247e-10
-4.17222e-11
-1.11412e-11
-3.8856e-12
-1.57065e-12
-6.81778e-13
-3.05674e-13
-1.37972e-13
-6.22431e-14
-2.77454e-14
-1.2317e-14
-5.40269e-15
-2.34563e-15
-1.01163e-15
-4.34945e-16
-1.84817e-16
-7.81652e-17
-3.30031e-17
-1.39395e-17
-5.92753e-18
-2.54037e-18
-1.17248e-18
-5.10245e-19
-1.96091e-19
-3.56222e-20
0
0
0
0
0
0
0
0
0
0
0
0
0
0
0
0
0
0
0
0
0
0
-6.36938e-17
-1.83194e-15
-6.21195e-14
9.78251e-07
2.3155e-05
0.000430425
0.0057297
0.0554452
0.400742
2.24199
10.0158
36.668
113.592
304.171
717.768
1522.75
2953.47
5325.66
9088.31
14958.5
24215.7
39303.6
65064.4
111287
198393
369240
711872
1.40108e+06
2.77074e+06
5.4493e+06
1.06237e+07
2.02361e+07
3.84323e+07
7.42197e+07
1.41758e+08
1.27326e+08
6.10213e+07
2.87167e+07
1.3099e+07
5.73357e+06
2.3867e+06
937221
347225
123517
28626.3
3018.38
167.803
5.25455
0.101082
0.00147345
2.28262e-05
5.48965e-07
2.37358e-08
-2.32212e-10
-4.13726e-11
-1.12745e-11
-3.98665e-12
-1.6215e-12
-7.12974e-13
-3.213e-13
-1.46503e-13
-6.61547e-14
-2.97905e-14
-1.32507e-14
-5.82512e-15
-2.53462e-15
-1.095e-15
-4.68296e-16
-1.98713e-16
-8.37236e-17
-3.52612e-17
-1.48514e-17
-6.29664e-18
-2.70321e-18
-1.22676e-18
-5.80811e-19
-2.08983e-19
-3.76577e-20
0
0
0
0
0
0
0
0
0
0
0
0
0
0
0
0
0
0
0
0
0
0
-6.36834e-17
-1.83235e-15
-6.01722e-14
9.79472e-07
2.16103e-05
0.000400985
0.00533574
0.0517934
0.377159
2.12235
9.50124
35.0957
109.668
296.167
704.592
1506.37
2943.04
5342.96
9175.23
15190.2
24728.6
40348.8
67108.7
115428
207256
387943
751044
1.48147e+06
2.93134e+06
5.76155e+06
1.12182e+07
2.12873e+07
4.1146e+07
7.91283e+07
1.50327e+08
1.19045e+08
5.69521e+07
2.6709e+07
1.21248e+07
5.27539e+06
2.1803e+06
849285
312767
109240
23229.8
2283.63
121.132
3.69306
0.071211
0.00107831
1.79132e-05
4.40413e-07
2.40012e-08
-2.21333e-10
-4.06299e-11
-1.1252e-11
-4.02034e-12
-1.6441e-12
-7.24314e-13
-3.28402e-13
-1.50057e-13
-6.82883e-14
-3.09465e-14
-1.37843e-14
-6.09191e-15
-2.6569e-15
-1.15059e-15
-4.91919e-16
-2.0983e-16
-8.85872e-17
-3.73456e-17
-1.57199e-17
-6.64404e-18
-2.92034e-18
-1.40046e-18
-5.5367e-19
-1.89985e-19
-3.71488e-20
0
0
0
0
0
0
0
0
0
0
0
0
0
0
0
0
0
0
0
0
0
0
-6.3689e-17
-1.80296e-15
-5.84405e-14
9.25957e-07
2.04911e-05
0.000381143
0.00507788
0.0494915
0.360239
2.02614
9.13905
34.0107
107.056
291.177
697.468
1500.9
2950.76
5388.99
9306.97
15490.7
25340.2
41535.9
69552.7
120587
217843
410102
797539
1.57759e+06
3.12524e+06
6.14479e+06
1.19657e+07
2.26985e+07
4.38458e+07
8.42612e+07
1.58774e+08
1.10793e+08
5.28902e+07
2.47096e+07
1.11601e+07
4.82537e+06
1.97977e+06
765028
280338
95514.9
18690.1
1726.66
87.7085
2.60118
0.0499473
0.000776492
1.36228e-05
3.81045e-07
2.43429e-08
-2.03383e-10
-3.86638e-11
-1.09409e-11
-3.96417e-12
-1.63845e-12
-7.24311e-13
-3.31244e-13
-1.51479e-13
-6.93552e-14
-3.148e-14
-1.40511e-14
-6.22531e-15
-2.7236e-15
-1.18394e-15
-5.08594e-16
-2.16083e-16
-9.13664e-17
-3.85615e-17
-1.6241e-17
-6.90459e-18
-3.06147e-18
-1.49274e-18
-5.86239e-19
-2.00163e-19
-3.83362e-20
0
0
0
0
0
0
0
0
0
0
0
0
0
0
0
0
0
0
0
0
0
0
-6.36896e-17
-1.77336e-15
-5.71506e-14
9.26676e-07
1.96665e-05
0.000367309
0.00489032
0.0474652
0.346457
1.96259
8.9074
33.3412
105.541
288.644
695.134
1503.72
2971.44
5453.57
9462.6
15818.9
25999.4
42902.8
72248
125874
228604
432462
844076
1.67283e+06
3.31536e+06
6.51621e+06
1.26807e+07
2.4028e+07
4.6409e+07
8.9141e+07
1.65852e+08
1.03402e+08
4.92655e+07
2.29358e+07
1.03105e+07
4.4326e+06
1.80654e+06
693099
253054
83776.9
15236.3
1337.73
65.6109
1.90545
0.0365898
0.000584108
1.07719e-05
3.0857e-07
2.46053e-08
-1.89159e-10
-3.70026e-11
-1.06743e-11
-3.89676e-12
-1.62716e-12
-7.21476e-13
-3.31244e-13
-1.5219e-13
-6.97108e-14
-3.16578e-14
-1.41845e-14
-6.29201e-15
-2.75695e-15
-1.20061e-15
-5.14152e-16
-2.19557e-16
-9.31034e-17
-3.92563e-17
-1.65884e-17
-7.1e-18
-3.13746e-18
-1.55788e-18
-6.35092e-19
-2.1509e-19
-3.90147e-20
0
0
0
0
0
0
0
0
0
0
0
0
0
0
0
0
0
0
0
0
0
0
-6.36948e-17
-1.74367e-15
-5.64087e-14
8.54416e-07
1.92733e-05
0.000357932
0.00474989
0.0462551
0.33882
1.92663
8.77878
32.9929
104.867
287.986
696.387
1512.44
3000.12
5526.15
9622.34
16151
26684.5
44216.8
74796
130926
238892
453757
888130
1.76228e+06
3.49263e+06
6.85998e+06
1.33379e+07
2.52433e+07
4.87658e+07
9.36238e+07
1.70971e+08
9.71786e+07
4.62238e+07
2.14559e+07
9.6067e+06
4.10987e+06
1.66551e+06
635162
231278
74397.3
12700.9
1069.34
50.8957
1.45027
0.0277933
0.000452597
8.67919e-06
2.64306e-07
2.48438e-08
-1.75174e-10
-3.52095e-11
-1.03187e-11
-3.80692e-12
-1.59891e-12
-7.12972e-13
-3.26982e-13
-1.50768e-13
-6.93552e-14
-3.16578e-14
-1.41845e-14
-6.31424e-15
-2.76807e-15
-1.20617e-15
-5.16932e-16
-2.20947e-16
-9.34508e-17
-3.943e-17
-1.66752e-17
-7.20857e-18
-3.22431e-18
-1.58502e-18
-6.45948e-19
-2.18483e-19
-4.03718e-20
0
0
0
0
0
0
0
0
0
0
0
0
0
0
0
0
0
0
0
0
0
0
-6.36973e-17
-1.74397e-15
-5.56407e-14
8.54854e-07
1.87107e-05
0.000350826
0.00466532
0.0455445
0.334491
1.90726
8.71562
32.8539
104.746
288.54
699.826
1524.27
3031.84
5600.05
9785.55
16492.3
27335.8
45455.3
77187.8
135667
248551
473755
929557
1.84638e+06
3.6595e+06
7.18471e+06
1.39519e+07
2.63916e+07
5.09421e+07
9.77501e+07
1.73886e+08
9.21783e+07
4.37844e+07
2.02732e+07
9.04683e+06
3.85439e+06
1.55469e+06
590004
214401
67094.8
10856.4
882.656
40.9347
1.14688
0.0219253
0.000362929
7.19784e-06
2.48507e-07
2.50372e-08
-1.63651e-10
-3.3634e-11
-1.00074e-11
-3.72834e-12
-1.57065e-12
-7.04469e-13
-3.24142e-13
-1.49347e-13
-6.89996e-14
-3.13022e-14
-1.414e-14
-6.29201e-15
-2.76807e-15
-1.20061e-15
-5.16932e-16
-2.20947e-16
-9.37982e-17
-3.96037e-17
-1.67621e-17
-7.36055e-18
-3.3763e-18
-1.51988e-18
-5.91667e-19
-2.00841e-19
-3.86755e-20
0
0
0
0
0
0
0
0
0
0
0
0
0
0
0
0
0
0
0
0
0
0
-6.36984e-17
-1.74411e-15
-5.5368e-14
8.55055e-07
1.85472e-05
0.000347326
0.00462558
0.0452078
0.332541
1.89967
8.69876
32.861
104.999
289.86
704.505
1537.7
3066.79
5682.9
9956.4
16816.5
27943.2
46599.7
79388.1
140022
257417
492099
967393
1.92319e+06
3.81156e+06
7.48009e+06
1.45059e+07
2.74288e+07
5.29357e+07
1.01551e+08
1.74719e+08
8.83675e+07
4.19194e+07
1.9368e+07
8.61871e+06
3.65968e+06
1.47027e+06
555708
201611
61501.1
9514.34
751.168
34.0588
0.93972
0.0179049
0.000300127
6.11776e-06
2.01635e-07
2.51995e-08
-1.53654e-10
-3.22332e-11
-9.69597e-12
-3.63846e-12
-1.5424e-12
-6.93127e-13
-3.1846e-13
-1.47925e-13
-6.79328e-14
-3.11243e-14
-1.40066e-14
-6.22531e-15
-2.74583e-15
-1.19505e-15
-5.14152e-16
-2.19557e-16
-9.34508e-17
-3.943e-17
-1.67621e-17
-7.38227e-18
-3.39801e-18
-1.50359e-18
-5.78097e-19
-1.96091e-19
-3.81666e-20
0
0
0
0
0
0
0
0
0
0
0
0
0
0
0
0
0
0
0
0
0
0
-6.36976e-17
-1.74416e-15
-5.52874e-14
8.55152e-07
1.855e-05
0.000345909
0.00460967
0.0450942
0.332066
1.89941
8.70981
32.9516
105.448
291.572
710.092
1553.65
3104.66
5762.03
10112.3
17111.9
28494.5
47634.8
81374.8
143951
265419
508652
1.00157e+06
1.99244e+06
3.94864e+06
7.74657e+06
1.50052e+07
2.83675e+07
5.47479e+07
1.05021e+08
1.7392e+08
8.55386e+07
4.05276e+07
1.869e+07
8.29715e+06
3.51308e+06
1.40675e+06
529946
191989
57238.4
8526.54
656.583
29.1857
0.794139
0.0150732
0.000255109
5.31706e-06
1.68934e-07
9.44326e-09
-1.45359e-10
-3.10067e-11
-9.42902e-12
-3.55981e-12
-1.51414e-12
-6.81785e-13
-3.14199e-13
-1.45793e-13
-6.72216e-14
-3.07687e-14
-1.38288e-14
-6.18084e-15
-2.7236e-15
-1.18394e-15
-5.11373e-16
-2.18168e-16
-9.2756e-17
-3.92563e-17
-1.66752e-17
-7.38227e-18
-3.40887e-18
-1.49274e-18
-5.72669e-19
-1.94734e-19
-3.74881e-20
0
0
0
0
0
0
0
0
0
0
0
0
0
0
0
0
0
0
0
0
0
0
-6.36963e-17
-1.74416e-15
-5.53168e-14
8.55188e-07
1.85511e-05
0.000345714
0.00460925
0.0451161
0.332469
1.90322
8.73642
33.0937
106.061
293.78
716.488
1569.39
3139.87
5834.64
10253.6
17377.1
28986.6
48555.4
83138.5
147438
272521
523345
1.03192e+06
2.05387e+06
4.07025e+06
7.98318e+06
1.54479e+07
2.92025e+07
5.63645e+07
1.08128e+08
1.72171e+08
8.34497e+07
3.94938e+07
1.8184e+07
8.05633e+06
3.403e+06
1.35897e+06
510572
184726
53973.1
7788.48
587.142
25.6508
0.689273
0.0130297
0.000222125
4.72409e-06
1.70846e-07
9.53345e-09
-1.38428e-10
-2.9955e-11
-9.18419e-12
-3.49242e-12
-1.49154e-12
-6.7044e-13
-3.09938e-13
-1.4366e-13
-6.65105e-14
-3.0413e-14
-1.36954e-14
-6.11415e-15
-2.69025e-15
-1.17282e-15
-5.05815e-16
-2.16083e-16
-9.17138e-17
-3.89089e-17
-1.65884e-17
-7.38227e-18
-3.40887e-18
-1.48188e-18
-5.6724e-19
-1.9202e-19
-3.66399e-20
0
0
0
0
0
0
0
0
0
0
0
0
0
0
0
0
0
0
0
0
0
0
-6.36941e-17
-1.74411e-15
-5.54569e-14
8.55191e-07
1.85514e-05
0.00034635
0.00461758
0.0452243
0.333529
1.91138
8.78255
33.2994
106.81
296.061
722.623
1584.15
3172.17
5900.18
10379.5
17611.4
29418.4
49360.2
84677.1
150477
278708
536139
1.05832e+06
2.10727e+06
4.1759e+06
8.18867e+06
1.58316e+07
2.99272e+07
5.77694e+07
1.1083e+08
1.70108e+08
8.18788e+07
3.87133e+07
1.78008e+07
7.87343e+06
3.31921e+06
1.32254e+06
495804
179166
51441.2
7227.25
535.08
23.0269
0.611919
0.0115209
0.000197534
4.25321e-06
1.57232e-07
-1.00245e-09
-1.32603e-10
-2.90785e-11
-8.98393e-12
-3.42497e-12
-1.46894e-12
-6.61934e-13
-3.05676e-13
-1.42238e-13
-6.54436e-14
-2.99684e-14
-1.35175e-14
-6.02521e-15
-2.6569e-15
-1.1617e-15
-5.00256e-16
-2.13999e-16
-9.1019e-17
-3.85615e-17
-1.64147e-17
-7.36055e-18
-3.39801e-18
-1.47645e-18
-5.64526e-19
-1.89985e-19
-3.6131e-20
0
0
0
0
0
0
0
0
0
0
0
0
0
0
0
0
0
0
0
0
0
0
-6.36911e-17
-1.74403e-15
-5.57078e-14
8.55157e-07
1.85507e-05
0.000347943
0.00463837
0.0454317
0.33517
1.92139
8.83254
33.5062
107.533
298.23
728.336
1597.64
3201.21
5958.28
10489.8
17814.9
29791.3
50052.1
85996.6
153079
284002
547072
1.0808e+06
2.15276e+06
4.26578e+06
8.36335e+06
1.61568e+07
3.05419e+07
5.89609e+07
1.13121e+08
1.68119e+08
8.0664e+07
3.81088e+07
1.75037e+07
7.73154e+06
3.25417e+06
1.29426e+06
484347
174839
49451.4
6793.87
495.371
21.0436
0.553783
0.0103864
0.000178847
3.90038e-06
1.38237e-07
-9.52173e-10
-1.27892e-10
-2.82887e-11
-8.80584e-12
-3.38007e-12
-1.44632e-12
-6.53427e-13
-3.02836e-13
-1.40817e-13
-6.47324e-14
-2.96127e-14
-1.33841e-14
-5.98075e-15
-2.63467e-15
-1.14503e-15
-4.94698e-16
-2.11914e-16
-8.99768e-17
-3.82141e-17
-1.63278e-17
-7.31713e-18
-3.38716e-18
-1.47103e-18
-5.61812e-19
-1.89306e-19
-3.51133e-20
0
0
0
0
0
0
0
0
0
0
0
0
0
0
0
0
0
0
0
0
0
0
-6.36877e-17
-1.77399e-15
-5.59575e-14
8.551e-07
1.87186e-05
0.000349681
0.00465951
0.0456541
0.33688
1.9317
8.8826
33.7075
108.218
300.241
733.536
1609.71
3226.82
6008.88
10585
17988.9
30108.1
50637.5
87109.8
155271
288455
556254
1.09968e+06
2.19084e+06
4.34091e+06
8.50919e+06
1.64276e+07
3.10537e+07
5.99527e+07
1.15026e+08
1.66368e+08
7.97032e+07
3.7631e+07
1.7269e+07
7.61949e+06
3.20284e+06
1.27195e+06
475327
171424
47872.4
6455.46
464.698
19.5237
0.509471
0.00952195
0.000164537
3.61285e-06
1.24001e-07
-9.11451e-10
-1.23861e-10
-2.76748e-11
-8.6724e-12
-3.32382e-12
-1.42936e-12
-6.47758e-13
-2.99995e-13
-1.38684e-13
-6.40212e-14
-2.9346e-14
-1.32508e-14
-5.91405e-15
-2.61243e-15
-1.13391e-15
-4.8914e-16
-2.0983e-16
-8.9282e-17
-3.78667e-17
-1.61541e-17
-7.29542e-18
-3.3763e-18
-1.4656e-18
-5.61812e-19
-1.87949e-19
-3.46044e-20
0
0
0
0
0
0
0
0
0
0
0
0
0
0
0
0
0
0
0
0
0
0
-6.36841e-17
-1.77387e-15
-5.62348e-14
8.55031e-07
1.87846e-05
0.000351601
0.00468273
0.0458806
0.338592
1.94178
8.93052
33.8961
108.847
302.058
738.156
1620.28
3248.97
6052.17
10665.6
18135.3
30373.1
51125.1
88034.4
157087
292141
563843
1.11526e+06
2.22222e+06
4.40275e+06
8.62911e+06
1.66497e+07
3.14735e+07
6.0766e+07
1.16587e+08
1.64892e+08
7.89353e+07
3.72494e+07
1.70818e+07
7.53025e+06
3.16201e+06
1.25423e+06
468175
168708
46616
6189.97
440.86
18.3508
0.475433
0.00885823
0.000153509
3.43088e-06
1.24746e-07
-8.78484e-10
-1.20688e-10
-2.71483e-11
-8.53873e-12
-3.29013e-12
-1.4124e-12
-6.39246e-13
-2.97154e-13
-1.37973e-13
-6.36657e-14
-2.90792e-14
-1.31174e-14
-5.86959e-15
-2.57908e-15
-1.12835e-15
-4.8636e-16
-2.07746e-16
-8.85872e-17
-3.75193e-17
-1.60673e-17
-7.2737e-18
-3.36545e-18
-1.46017e-18
-5.59098e-19
-1.87271e-19
-3.40955e-20
0
0
0
0
0
0
0
0
0
0
0
0
0
0
0
0
0
0
0
0
0
0
-6.36806e-17
-1.77376e-15
-5.64838e-14
8.5496e-07
1.88844e-05
0.000353394
0.00470514
0.0460995
0.34021
1.95117
8.97442
34.0662
109.406
303.649
742.152
1629.32
3267.71
6088.43
10732.6
18256.1
30590.7
51524.1
88789.1
158568
295140
570013
1.12791e+06
2.24767e+06
4.45283e+06
8.72613e+06
1.68291e+07
3.18126e+07
6.14226e+07
1.17846e+08
1.63684e+08
7.83226e+07
3.69454e+07
1.69328e+07
7.45933e+06
3.1296e+06
1.24018e+06
462518
166554
45620.7
5982.32
422.366
17.4463
0.449287
0.00834849
0.000144924
3.243e-06
1.2534e-07
-8.52127e-10
-1.18028e-10
-2.67093e-11
-8.42732e-12
-3.25641e-12
-1.40109e-12
-6.33573e-13
-2.94313e-13
-1.36551e-13
-6.29544e-14
-2.88124e-14
-1.30284e-14
-5.82512e-15
-2.56797e-15
-1.11724e-15
-4.83581e-16
-2.06356e-16
-8.78924e-17
-3.73456e-17
-1.59804e-17
-7.25199e-18
-3.35459e-18
-1.46017e-18
-5.56384e-19
-1.87271e-19
-3.37562e-20
0
0
0
0
0
0
0
0
0
0
0
0
0
0
0
0
0
0
0
0
0
0
-6.36773e-17
-1.80371e-15
-5.6733e-14
8.54893e-07
1.89504e-05
0.000355156
0.00472556
0.0462968
0.341661
1.95949
9.01286
34.2135
109.885
304.996
745.499
1636.82
3283.11
6118.02
10786.8
18353.4
30765.2
51843.1
89391.2
159747
297527
574913
1.13798e+06
2.26785e+06
4.49252e+06
8.80299e+06
1.69709e+07
3.20806e+07
6.19418e+07
1.18841e+08
1.62721e+08
7.78409e+07
3.67066e+07
1.68159e+07
7.40373e+06
3.10423e+06
1.2292e+06
458100
164867
44843.1
5822.31
408.226
16.758
0.429443
0.00796141
0.000138407
3.1165e-06
1.25807e-07
-8.31312e-10
-1.15881e-10
-2.63581e-11
-8.33818e-12
-3.22264e-12
-1.38978e-12
-6.3074e-13
-2.91471e-13
-1.3584e-13
-6.25988e-14
-2.86346e-14
-1.29395e-14
-5.78065e-15
-2.54573e-15
-1.11168e-15
-4.78023e-16
-2.04966e-16
-8.71976e-17
-3.71719e-17
-1.58936e-17
-7.23028e-18
-3.34373e-18
-1.45474e-18
-5.56384e-19
-1.86592e-19
-3.3417e-20
0
0
0
0
0
0
0
0
0
0
0
0
0
0
0
0
0
0
0
0
0
0
-6.36746e-17
-1.80361e-15
-5.69546e-14
8.54833e-07
1.91181e-05
0.000355466
0.00474266
0.0464654
0.342884
1.96644
9.04473
34.3345
110.275
306.085
748.184
1642.79
3295.29
6141.25
10829.2
18429.1
30900.4
52089.6
89855.7
160656
299365
578685
1.14572e+06
2.28334e+06
4.52297e+06
8.8619e+06
1.70795e+07
3.22859e+07
6.23393e+07
1.19602e+08
1.6198e+08
7.7473e+07
3.65244e+07
1.67268e+07
7.36137e+06
3.08491e+06
1.22084e+06
454744
163582
44245.8
5705.71
397.875
16.2532
0.414867
0.00767612
0.000133627
3.01443e-06
1.26162e-07
-8.15299e-10
-1.1425e-10
-2.60948e-11
-8.27135e-12
-3.21146e-12
-1.38414e-12
-6.27905e-13
-2.90051e-13
-1.35129e-13
-6.22432e-14
-2.84568e-14
-1.28506e-14
-5.73619e-15
-2.53462e-15
-1.10612e-15
-4.78023e-16
-2.04272e-16
-8.68502e-17
-3.68245e-17
-1.58067e-17
-7.23028e-18
-3.34373e-18
-1.45474e-18
-5.5367e-19
-1.85914e-19
-3.32473e-20
0
0
0
0
0
0
0
0
0
0
0
0
0
0
0
0
0
0
0
0
0
0
-6.36724e-17
-1.80353e-15
-5.71206e-14
8.54786e-07
1.91169e-05
0.000356671
0.00475676
0.0465967
0.343836
1.97183
9.06925
34.427
110.571
306.907
750.198
1647.25
3304.33
6158.42
10860.4
18484.6
30999.2
52269.4
90194.1
161317
300701
581427
1.15132e+06
2.29459e+06
4.54506e+06
8.90463e+06
1.71582e+07
3.24347e+07
6.26274e+07
1.20154e+08
1.61441e+08
7.72066e+07
3.63925e+07
1.66623e+07
7.33076e+06
3.07095e+06
1.21481e+06
452324
162654
43814.5
5623.55
390.618
15.9005
0.404711
0.00747738
0.000130187
2.95627e-06
1.26419e-07
-8.03597e-10
-1.13091e-10
-2.58751e-11
-8.22685e-12
-3.18894e-12
-1.37849e-12
-6.25069e-13
-2.8863e-13
-1.34418e-13
-6.22433e-14
-2.83678e-14
-1.28061e-14
-5.71395e-15
-2.5235e-15
-1.10056e-15
-4.75244e-16
-2.02882e-16
-8.65028e-17
-3.68245e-17
-1.58067e-17
-7.20857e-18
-3.34373e-18
-1.44931e-18
-5.5367e-19
-1.85914e-19
-3.30777e-20
0
0
0
0
0
0
0
0
0
0
0
0
0
0
0
0
0
0
0
0
0
0
-6.36708e-17
-1.80348e-15
-5.72312e-14
8.54753e-07
1.91162e-05
0.000357504
0.00476599
0.0466866
0.344484
1.97547
9.0858
34.4892
110.77
307.455
751.538
1650.2
3310.3
6169.71
10880.9
18520.9
31063.8
52386.8
90414.8
161749
301573
583214
1.15497e+06
2.30191e+06
4.55943e+06
8.93243e+06
1.72093e+07
3.25314e+07
6.28148e+07
1.20513e+08
1.6109e+08
7.70334e+07
3.63067e+07
1.66205e+07
7.31088e+06
3.0619e+06
1.2109e+06
450756
162052
43535.8
5570.97
386.007
15.6779
0.398341
0.00735339
0.000128109
2.91397e-06
1.11342e-07
-7.96043e-10
-1.12275e-10
-2.57434e-11
-8.1822e-12
-3.17769e-12
-1.37283e-12
-6.22231e-13
-2.88631e-13
-1.33707e-13
-6.18876e-14
-2.82789e-14
-1.27616e-14
-5.71395e-15
-2.51238e-15
-1.095e-15
-4.72464e-16
-2.02882e-16
-8.61554e-17
-3.66508e-17
-1.57199e-17
-7.18685e-18
-3.33288e-18
-1.44931e-18
-5.5367e-19
-1.85235e-19
-3.29081e-20
0
0
0
0
0
0
0
0
0
0
0
0
0
0
0
0
0
0
0
0
0
0
-6.36701e-17
-1.80345e-15
-5.72865e-14
8.54737e-07
1.92172e-05
0.000357812
0.00477105
0.0467298
0.344799
1.97725
9.09387
34.5195
110.866
307.722
752.19
1651.64
3313.2
6175.2
10890.8
18538.5
31095.2
52443.9
90522.1
161958
301996
584083
1.15675e+06
2.30547e+06
4.56643e+06
8.94598e+06
1.72342e+07
3.25786e+07
6.29061e+07
1.20687e+08
1.60918e+08
7.69489e+07
3.62649e+07
1.66e+07
7.3012e+06
3.05749e+06
1.209e+06
449993
161759
43401.4
5545.83
383.819
15.573
0.39536
0.00729584
0.000127172
2.88785e-06
1.11415e-07
-7.92556e-10
-1.11888e-10
-2.56553e-11
-8.18234e-12
-3.17772e-12
-1.36716e-12
-6.22232e-13
-2.88631e-13
-1.33707e-13
-6.18876e-14
-2.82789e-14
-1.27617e-14
-5.69172e-15
-2.51238e-15
-1.095e-15
-4.72464e-16
-2.02187e-16
-8.61554e-17
-3.66508e-17
-1.57199e-17
-7.18685e-18
-3.33288e-18
-1.44931e-18
-5.5367e-19
-1.85235e-19
-3.29081e-20
0
0
0
0
0
0
0
0
0
0
0
0
0
0
0
0
0
0
0
0
0
0
-6.36701e-17
-1.80345e-15
-5.72865e-14
8.54737e-07
1.92172e-05
0.000357812
0.00477093
0.0467297
0.344799
1.97725
9.09385
34.5195
110.866
307.722
752.19
1651.64
3313.2
6175.2
10890.8
18538.5
31095.2
52443.9
90522.1
161958
301997
584083
1.15675e+06
2.30548e+06
4.56643e+06
8.94598e+06
1.72342e+07
3.25786e+07
6.29062e+07
1.20687e+08
1.60918e+08
7.69488e+07
3.62649e+07
1.66e+07
7.30119e+06
3.05749e+06
1.209e+06
449992
161759
43401.2
5545.79
383.816
15.5729
0.395356
0.00729574
0.000127173
2.88785e-06
1.11415e-07
-7.92472e-10
-1.11888e-10
-2.56553e-11
-8.18234e-12
-3.17772e-12
-1.36716e-12
-6.22232e-13
-2.88631e-13
-1.33707e-13
-6.18876e-14
-2.82789e-14
-1.27617e-14
-5.69172e-15
-2.51238e-15
-1.095e-15
-4.72464e-16
-2.02187e-16
-8.61554e-17
-3.66508e-17
-1.57199e-17
-7.18685e-18
-3.33288e-18
-1.44931e-18
-5.5367e-19
-1.85235e-19
-3.29081e-20
0
0
0
0
0
0
0
0
0
0
0
0
0
0
0
0
0
0
0
0
0
0
-6.36709e-17
-1.80348e-15
-5.72312e-14
8.54753e-07
1.91162e-05
0.000357505
0.00476599
0.0466861
0.344482
1.97546
9.08575
34.4891
110.769
307.454
751.537
1650.2
3310.29
6169.71
10880.9
18520.9
31063.8
52386.8
90414.8
161749
301573
583214
1.15497e+06
2.30191e+06
4.55943e+06
8.93245e+06
1.72093e+07
3.25315e+07
6.2815e+07
1.20513e+08
1.61089e+08
7.7033e+07
3.63066e+07
1.66204e+07
7.31084e+06
3.06188e+06
1.21089e+06
450752
162050
43535.2
5570.86
385.998
15.6775
0.398329
0.00735321
0.00012811
2.91398e-06
1.11342e-07
-7.95959e-10
-1.12275e-10
-2.57434e-11
-8.1822e-12
-3.17769e-12
-1.37283e-12
-6.22231e-13
-2.88631e-13
-1.33707e-13
-6.18876e-14
-2.82789e-14
-1.27616e-14
-5.71395e-15
-2.51238e-15
-1.095e-15
-4.72464e-16
-2.02882e-16
-8.61554e-17
-3.66508e-17
-1.57199e-17
-7.18685e-18
-3.33288e-18
-1.44931e-18
-5.5367e-19
-1.85235e-19
-3.29081e-20
0
0
0
0
0
0
0
0
0
0
0
0
0
0
0
0
0
0
0
0
0
0
-6.36724e-17
-1.80353e-15
-5.71206e-14
8.54786e-07
1.91169e-05
0.000356671
0.00475667
0.0465958
0.343833
1.97181
9.06917
34.4267
110.571
306.905
750.196
1647.24
3304.32
6158.4
10860.4
18484.5
30999.2
52269.4
90194
161317
300701
581428
1.15132e+06
2.2946e+06
4.54507e+06
8.90467e+06
1.71582e+07
3.24348e+07
6.26278e+07
1.20155e+08
1.6144e+08
7.7206e+07
3.63922e+07
1.66622e+07
7.33069e+06
3.07092e+06
1.2148e+06
452318
162651
43813.5
5623.37
390.603
15.8998
0.404691
0.00747701
0.000130187
2.95629e-06
1.2642e-07
-8.03597e-10
-1.13047e-10
-2.58751e-11
-8.22685e-12
-3.18894e-12
-1.37849e-12
-6.25069e-13
-2.8863e-13
-1.34418e-13
-6.22433e-14
-2.83678e-14
-1.28061e-14
-5.71395e-15
-2.5235e-15
-1.10056e-15
-4.75244e-16
-2.02882e-16
-8.65028e-17
-3.68245e-17
-1.58067e-17
-7.20857e-18
-3.34373e-18
-1.44931e-18
-5.5367e-19
-1.85914e-19
-3.30777e-20
0
0
0
0
0
0
0
0
0
0
0
0
0
0
0
0
0
0
0
0
0
0
-6.36746e-17
-1.80361e-15
-5.69546e-14
8.54834e-07
1.91181e-05
0.000355466
0.00474257
0.0464644
0.342879
1.96642
9.04463
34.3342
110.274
306.083
748.18
1642.79
3295.28
6141.23
10829.2
18429.1
30900.3
52089.5
89855.7
160656
299365
578686
1.14572e+06
2.28335e+06
4.52298e+06
8.86195e+06
1.70796e+07
3.22861e+07
6.23398e+07
1.19603e+08
1.61978e+08
7.74722e+07
3.6524e+07
1.67266e+07
7.36128e+06
3.08486e+06
1.22082e+06
454736
163579
44244.4
5705.46
397.854
16.2522
0.414838
0.00767557
0.000133594
3.01445e-06
1.26163e-07
-8.15299e-10
-1.1425e-10
-2.60948e-11
-8.27135e-12
-3.21146e-12
-1.38414e-12
-6.27905e-13
-2.90051e-13
-1.35129e-13
-6.22432e-14
-2.84568e-14
-1.28506e-14
-5.73619e-15
-2.53462e-15
-1.10612e-15
-4.78023e-16
-2.04272e-16
-8.68502e-17
-3.68245e-17
-1.58067e-17
-7.23028e-18
-3.34373e-18
-1.45474e-18
-5.5367e-19
-1.85914e-19
-3.32473e-20
0
0
0
0
0
0
0
0
0
0
0
0
0
0
0
0
0
0
0
0
0
0
-6.36774e-17
-1.80371e-15
-5.67331e-14
8.54893e-07
1.89504e-05
0.000355156
0.00472536
0.0462957
0.341654
1.95945
9.01273
34.213
109.884
304.994
745.495
1636.82
3283.1
6117.99
10786.8
18353.4
30765.1
51843.1
89391.3
159748
297528
574916
1.13795e+06
2.26786e+06
4.49254e+06
8.80304e+06
1.6971e+07
3.20809e+07
6.19425e+07
1.18842e+08
1.62719e+08
7.78399e+07
3.67061e+07
1.68157e+07
7.40361e+06
3.10417e+06
1.22917e+06
458089
164863
44841.4
5821.98
408.197
16.7567
0.429405
0.00796067
0.000138409
3.11653e-06
1.25808e-07
-8.31228e-10
-1.15881e-10
-2.63581e-11
-8.33818e-12
-3.22264e-12
-1.38978e-12
-6.3074e-13
-2.91471e-13
-1.3584e-13
-6.25988e-14
-2.86346e-14
-1.29395e-14
-5.78065e-15
-2.54573e-15
-1.11168e-15
-4.78023e-16
-2.04966e-16
-8.71976e-17
-3.71719e-17
-1.58936e-17
-7.23028e-18
-3.34373e-18
-1.45474e-18
-5.56384e-19
-1.86592e-19
-3.3417e-20
0
0
0
0
0
0
0
0
0
0
0
0
0
0
0
0
0
0
0
0
0
0
-6.36806e-17
-1.77376e-15
-5.64839e-14
8.54961e-07
1.88844e-05
0.000353331
0.00470493
0.046098
0.340202
1.95113
8.97427
34.0657
109.405
303.646
742.146
1629.31
3267.69
6088.4
10732.5
18256
30590.6
51524.1
88789.1
158568
295141
570013
1.12797e+06
2.24768e+06
4.45286e+06
8.7262e+06
1.68292e+07
3.18129e+07
6.14234e+07
1.17848e+08
1.63682e+08
7.83215e+07
3.69448e+07
1.69325e+07
7.45917e+06
3.12953e+06
1.24015e+06
462505
166549
45618.5
5981.9
422.33
17.4445
0.449237
0.00834752
0.000144926
3.24304e-06
1.25342e-07
-8.52043e-10
-1.18028e-10
-2.67094e-11
-8.42732e-12
-3.25641e-12
-1.40109e-12
-6.33573e-13
-2.94313e-13
-1.36551e-13
-6.29544e-14
-2.88124e-14
-1.30284e-14
-5.80289e-15
-2.56797e-15
-1.11724e-15
-4.83581e-16
-2.06356e-16
-8.78924e-17
-3.73456e-17
-1.59804e-17
-7.25199e-18
-3.35459e-18
-1.46017e-18
-5.56384e-19
-1.87271e-19
-3.37562e-20
0
0
0
0
0
0
0
0
0
0
0
0
0
0
0
0
0
0
0
0
0
0
-6.36841e-17
-1.77388e-15
-5.62349e-14
8.55032e-07
1.87846e-05
0.000351507
0.00468244
0.04588
0.338582
1.94174
8.93034
33.8955
108.846
302.054
738.149
1620.27
3248.95
6052.14
10665.5
18135.2
30373
51125
88034.3
157087
292141
563844
1.11527e+06
2.22224e+06
4.40278e+06
8.62919e+06
1.66499e+07
3.14739e+07
6.07669e+07
1.16589e+08
1.6489e+08
7.89339e+07
3.72487e+07
1.70814e+07
7.53006e+06
3.16192e+06
1.25419e+06
468160
168702
46613.5
6189.47
440.816
18.3487
0.475371
0.00885698
0.00015346
3.43093e-06
1.24748e-07
-8.784e-10
-1.20688e-10
-2.71483e-11
-8.53873e-12
-3.29014e-12
-1.4124e-12
-6.39246e-13
-2.97154e-13
-1.37973e-13
-6.36657e-14
-2.90792e-14
-1.31174e-14
-5.86959e-15
-2.57908e-15
-1.12835e-15
-4.8636e-16
-2.07746e-16
-8.85872e-17
-3.75193e-17
-1.60673e-17
-7.2737e-18
-3.36545e-18
-1.46017e-18
-5.59098e-19
-1.87271e-19
-3.40955e-20
0
0
0
0
0
0
0
0
0
0
0
0
0
0
0
0
0
0
0
0
0
0
-6.36877e-17
-1.77399e-15
-5.59576e-14
8.55101e-07
1.87186e-05
0.000349618
0.0046593
0.0456523
0.33687
1.93165
8.88241
33.7069
108.216
300.238
733.528
1609.7
3226.8
6008.84
10584.9
17988.8
30108
50637.4
87109.6
155270
288455
556254
1.09976e+06
2.19085e+06
4.34095e+06
8.50928e+06
1.64278e+07
3.10542e+07
5.99538e+07
1.15029e+08
1.66365e+08
7.97016e+07
3.76301e+07
1.72686e+07
7.61928e+06
3.20274e+06
1.27191e+06
475309
171418
47869.5
6454.86
464.645
19.5211
0.509394
0.00952048
0.00016454
3.61291e-06
1.24003e-07
-9.11368e-10
-1.23861e-10
-2.76748e-11
-8.67241e-12
-3.32382e-12
-1.42936e-12
-6.47758e-13
-2.98574e-13
-1.38684e-13
-6.40212e-14
-2.9346e-14
-1.32508e-14
-5.91405e-15
-2.61243e-15
-1.13391e-15
-4.8914e-16
-2.0983e-16
-8.9282e-17
-3.78667e-17
-1.61541e-17
-7.29542e-18
-3.3763e-18
-1.4656e-18
-5.61812e-19
-1.87949e-19
-3.46044e-20
0
0
0
0
0
0
0
0
0
0
0
0
0
0
0
0
0
0
0
0
0
0
-6.36911e-17
-1.74403e-15
-5.56797e-14
8.55158e-07
1.85507e-05
0.000347943
0.00463817
0.0454299
0.335158
1.92134
8.83232
33.5055
107.531
298.225
728.328
1597.62
3201.18
5958.23
10489.8
17814.8
29791.1
50051.9
85996.2
153079
284002
547073
1.08081e+06
2.15277e+06
4.26582e+06
8.36345e+06
1.6157e+07
3.05424e+07
5.89621e+07
1.13124e+08
1.68116e+08
8.06621e+07
3.81079e+07
1.75032e+07
7.7313e+06
3.25406e+06
1.29421e+06
484327
174831
49448
6793.17
495.307
21.0404
0.553689
0.0103845
0.000178851
3.90045e-06
1.38239e-07
-9.52091e-10
-1.27805e-10
-2.82887e-11
-8.80584e-12
-3.38007e-12
-1.44632e-12
-6.53427e-13
-3.02836e-13
-1.40817e-13
-6.47324e-14
-2.96127e-14
-1.33841e-14
-5.98075e-15
-2.63467e-15
-1.14503e-15
-4.94698e-16
-2.11914e-16
-8.99768e-17
-3.82141e-17
-1.63278e-17
-7.31713e-18
-3.38716e-18
-1.47103e-18
-5.61812e-19
-1.89306e-19
-3.51133e-20
0
0
0
0
0
0
0
0
0
0
0
0
0
0
0
0
0
0
0
0
0
0
-6.36941e-17
-1.74411e-15
-5.5457e-14
8.55192e-07
1.85514e-05
0.00034635
0.00461729
0.0452221
0.333517
1.91131
8.7823
33.2986
106.808
296.056
722.613
1584.13
3172.14
5900.12
10379.4
17611.2
29418.2
49359.9
84676.6
150476
278708
536141
1.05831e+06
2.10728e+06
4.17593e+06
8.18877e+06
1.58318e+07
2.99278e+07
5.77706e+07
1.10833e+08
1.70105e+08
8.18766e+07
3.87122e+07
1.78002e+07
7.87316e+06
3.31909e+06
1.32249e+06
495780
179157
51437.3
7226.43
535.004
23.0231
0.611804
0.0115185
0.000197505
4.2533e-06
1.57234e-07
-1.00237e-09
-1.32603e-10
-2.90341e-11
-8.98394e-12
-3.42497e-12
-1.46894e-12
-6.61935e-13
-3.05676e-13
-1.42238e-13
-6.54436e-14
-2.99684e-14
-1.35175e-14
-6.02521e-15
-2.6569e-15
-1.1617e-15
-5.00256e-16
-2.13999e-16
-9.1019e-17
-3.85615e-17
-1.64147e-17
-7.36055e-18
-3.39801e-18
-1.47645e-18
-5.64526e-19
-1.89985e-19
-3.6131e-20
0
0
0
0
0
0
0
0
0
0
0
0
0
0
0
0
0
0
0
0
0
0
-6.36964e-17
-1.74416e-15
-5.53168e-14
8.55189e-07
1.85512e-05
0.000345715
0.00460905
0.045114
0.332455
1.90316
8.73616
33.0928
106.058
293.774
716.476
1569.37
3139.83
5834.57
10253.5
17376.9
28986.3
48554.9
83137.8
147437
272520
523344
1.03191e+06
2.05388e+06
4.07028e+06
7.98326e+06
1.54481e+07
2.9203e+07
5.63658e+07
1.08131e+08
1.72168e+08
8.34471e+07
3.94925e+07
1.81834e+07
8.05602e+06
3.40285e+06
1.3589e+06
510545
184716
53968.7
7787.5
587.05
25.646
0.68913
0.0130268
0.000222096
4.7242e-06
1.70849e-07
9.53356e-09
-1.38428e-10
-2.9955e-11
-9.18419e-12
-3.49242e-12
-1.49154e-12
-6.7044e-13
-3.09938e-13
-1.4366e-13
-6.65105e-14
-3.0413e-14
-1.36954e-14
-6.11415e-15
-2.69025e-15
-1.17282e-15
-5.05815e-16
-2.16083e-16
-9.17138e-17
-3.89089e-17
-1.65884e-17
-7.38227e-18
-3.40887e-18
-1.48188e-18
-5.6724e-19
-1.9202e-19
-3.66399e-20
0
0
0
0
0
0
0
0
0
0
0
0
0
0
0
0
0
0
0
0
0
0
-6.36977e-17
-1.74416e-15
-5.52875e-14
8.55153e-07
1.855e-05
0.000345846
0.00460938
0.0450919
0.332053
1.89934
8.70955
32.9507
105.446
291.566
710.08
1553.62
3104.62
5761.94
10112.2
17111.6
28494.1
47634.2
81373.8
143949
265416
508649
1.00157e+06
1.99244e+06
3.94866e+06
7.74664e+06
1.50054e+07
2.8368e+07
5.47492e+07
1.05024e+08
1.73918e+08
8.55355e+07
4.05261e+07
1.86892e+07
8.29677e+06
3.51291e+06
1.40668e+06
529915
191978
57233.2
8525.37
656.47
29.1799
0.793959
0.0150696
0.000255032
5.3172e-06
1.68938e-07
9.44345e-09
-1.4536e-10
-3.10067e-11
-9.42903e-12
-3.55981e-12
-1.51414e-12
-6.81785e-13
-3.14199e-13
-1.45793e-13
-6.72216e-14
-3.07687e-14
-1.38288e-14
-6.18084e-15
-2.71248e-15
-1.18394e-15
-5.11373e-16
-2.18168e-16
-9.2756e-17
-3.92563e-17
-1.66752e-17
-7.38227e-18
-3.40887e-18
-1.49274e-18
-5.72669e-19
-1.94734e-19
-3.74881e-20
0
0
0
0
0
0
0
0
0
0
0
0
0
0
0
0
0
0
0
0
0
0
-6.36985e-17
-1.74412e-15
-5.53681e-14
8.55055e-07
1.85472e-05
0.000347327
0.00462529
0.0452063
0.332527
1.8996
8.69847
32.8601
104.996
289.854
704.493
1537.68
3066.74
5682.8
9956.25
16816.2
27942.8
46599
79386.9
140020
257413
492092
967387
1.92319e+06
3.81157e+06
7.48014e+06
1.45061e+07
2.74293e+07
5.29369e+07
1.01554e+08
1.74718e+08
8.83637e+07
4.19174e+07
1.9367e+07
8.61824e+06
3.65948e+06
1.47018e+06
555671
201597
61495.1
9512.91
751.026
34.0512
0.939486
0.0179001
0.000300052
6.11794e-06
2.0164e-07
2.51998e-08
-1.53654e-10
-3.22333e-11
-9.69597e-12
-3.63846e-12
-1.5424e-12
-6.93128e-13
-3.1846e-13
-1.47925e-13
-6.79328e-14
-3.11243e-14
-1.40066e-14
-6.22531e-15
-2.74583e-15
-1.19505e-15
-5.14152e-16
-2.19557e-16
-9.34508e-17
-3.943e-17
-1.67621e-17
-7.38227e-18