/*--------------------------------*- C++ -*----------------------------------*\
  =========                 |
  \\      /  F ield         | OpenFOAM: The Open Source CFD Toolbox
   \\    /   O peration     | Website:  https://openfoam.org
    \\  /    A nd           | Version:  10
     \\/     M anipulation  |
\*---------------------------------------------------------------------------*/
FoamFile
{
    format      ascii;
    class       volScalarField;
    location    "1";
    object      RR.CO2;
}
// * * * * * * * * * * * * * * * * * * * * * * * * * * * * * * * * * * * * * //

dimensions      [1 -3 -1 0 0 0 0];

internalField   nonuniform List<scalar> 
4000
(
0
0
0
0
0
0
0
0
0
0
0
0
0
0
0
0
0
0
0
0
0
0
0
0
0
5.65837e-14
1.40984e-12
2.62249e-11
3.47891e-10
3.33303e-09
2.37796e-08
1.31057e-07
5.78629e-07
2.10832e-06
6.48036e-06
1.72021e-05
4.02495e-05
8.47208e-05
0.000163156
0.000292345
0.000496109
0.000812481
0.00130924
0.00211548
0.00348629
0.00593944
0.0105439
0.0195423
0.0375393
0.0736896
0.145491
0.285822
0.556631
1.06146
2.01398
3.88861
7.4406
7.28307
3.49664
1.65024
0.755603
0.332288
0.139105
0.0549832
0.0204852
0.00736809
0.00183805
0.000209082
1.23566e-05
4.05715e-07
7.97728e-09
1.14181e-10
1.66311e-12
3.71977e-14
1.16544e-15
0
0
0
0
0
0
0
0
0
0
0
0
0
0
0
0
0
0
0
0
0
0
0
0
0
0
0
0
0
0
0
0
0
0
0
0
0
0
0
0
0
0
0
0
0
0
0
0
0
0
4.85984e-14
1.27066e-12
2.35774e-11
3.14149e-10
3.04016e-09
2.19732e-08
1.22932e-07
5.49181e-07
2.01056e-06
6.22844e-06
1.66782e-05
3.93563e-05
8.34945e-05
0.000161943
0.000292014
0.000498326
0.000820198
0.00132778
0.00215508
0.00356758
0.00610204
0.0108782
0.020246
0.039033
0.0768236
0.151924
0.298794
0.582514
1.10958
2.1073
4.06958
7.77283
6.98149
3.34589
1.57458
0.718239
0.31438
0.130866
0.0513892
0.0190388
0.00677263
0.00156962
0.000165502
9.20091e-06
2.88115e-07
5.54245e-09
8.07908e-11
1.25107e-12
3.07632e-14
1.16786e-15
0
0
0
0
0
0
0
0
0
0
0
0
0
0
0
0
0
0
0
0
0
0
0
0
0
0
0
0
0
0
0
0
0
0
0
0
0
0
0
0
0
0
0
0
0
0
0
0
0
0
4.8659e-14
1.19748e-12
2.20002e-11
2.92596e-10
2.83994e-09
2.06802e-08
1.16372e-07
5.20967e-07
1.92435e-06
6.01328e-06
1.62393e-05
3.86339e-05
8.25965e-05
0.000161371
0.000292962
0.000503092
0.000832902
0.0013559
0.00221238
0.00367967
0.00632912
0.0113642
0.0212715
0.0411809
0.081231
0.16073
0.315915
0.61511
1.16721
2.2561
4.33872
8.24264
6.52743
3.12277
1.46449
0.664823
0.289258
0.119549
0.0465675
0.0171495
0.00598981
0.00127373
0.000125215
6.64184e-06
2.02496e-07
3.9046e-09
5.91271e-11
9.82413e-13
2.42555e-14
1.16992e-15
0
0
0
0
0
0
0
0
0
0
0
0
0
0
0
0
0
0
0
0
0
0
0
0
0
0
0
0
0
0
0
0
0
0
0
0
0
0
0
0
0
0
0
0
0
0
0
0
0
0
4.87074e-14
1.13868e-12
2.09037e-11
2.78431e-10
2.71374e-09
1.97524e-08
1.11096e-07
5.01108e-07
1.86486e-06
5.87007e-06
1.59657e-05
3.82432e-05
8.22965e-05
0.000161794
0.000295487
0.000510315
0.000849379
0.00138944
0.00227747
0.00381368
0.00661196
0.0119447
0.0224865
0.0437303
0.0865017
0.171362
0.336928
0.656097
1.24459
2.40413
4.62017
8.70581
6.07495
2.90005
1.35487
0.611923
0.264582
0.108554
0.0419476
0.0153713
0.00523723
0.00102481
9.46756e-05
4.80919e-06
1.42627e-07
2.73868e-09
4.25753e-11
7.47761e-13
1.99301e-14
1.17283e-15
0
0
0
0
0
0
0
0
0
0
0
0
0
0
0
0
0
0
0
0
0
0
0
0
0
0
0
0
0
0
0
0
0
0
0
0
0
0
0
0
0
0
0
0
0
0
0
0
0
0
4.87452e-14
1.10203e-12
2.01542e-11
2.68164e-10
2.60263e-09
1.89968e-08
1.07612e-07
4.88406e-07
1.82815e-06
5.78695e-06
1.58268e-05
3.81153e-05
8.24512e-05
0.000162929
0.000299027
0.000518848
0.000867376
0.00142559
0.00235242
0.00396147
0.00690184
0.0125347
0.0237125
0.0462819
0.0917239
0.181786
0.357294
0.695305
1.31749
2.54468
4.88774
9.09391
5.6697
2.7013
1.25761
0.56534
0.243046
0.0990552
0.0380036
0.0138753
0.00459361
0.00083543
7.33499e-05
3.59755e-06
1.04479e-07
2.00627e-09
3.20272e-11
5.91671e-13
1.77795e-14
1.1753e-15
0
0
0
0
0
0
0
0
0
0
0
0
0
0
0
0
0
0
0
0
0
0
0
0
0
0
0
0
0
0
0
0
0
0
0
0
0
0
0
0
0
0
0
0
0
0
0
0
0
0
4.06395e-14
1.08005e-12
1.96364e-11
2.60459e-10
2.53627e-09
1.8578e-08
1.0564e-07
4.81354e-07
1.80905e-06
5.75002e-06
1.57907e-05
3.8184e-05
8.29292e-05
0.000164501
0.000303007
0.000527607
0.000885585
0.00146315
0.00242447
0.00410118
0.00717889
0.0130988
0.0248802
0.0486975
0.0966284
0.191506
0.376143
0.731336
1.38413
2.6739
5.13353
9.3746
5.32845
2.53452
1.17646
0.52675
0.22535
0.0913226
0.0348269
0.0126813
0.00407932
0.000696412
5.86338e-05
2.79069e-06
7.95206e-08
1.52395e-09
2.48126e-11
4.74911e-13
1.56101e-14
1.17776e-15
0
0
0
0
0
0
0
0
0
0
0
0
0
0
0
0
0
0
0
0
0
0
0
0
0
0
0
0
0
0
0
0
0
0
0
0
0
0
0
0
0
0
0
0
0
0
0
0
0
0
4.06603e-14
1.0505e-12
1.9228e-11
2.55789e-10
2.49732e-09
1.83407e-08
1.04578e-07
4.77891e-07
1.80143e-06
5.74337e-06
1.58211e-05
3.83725e-05
8.35779e-05
0.000166241
0.000307059
0.000536556
0.0009043
0.00149886
0.00249238
0.00423232
0.00743884
0.0136284
0.0259767
0.050969
0.10124
0.200656
0.393949
0.765002
1.44709
2.79324
5.35979
9.53446
5.05428
2.40077
1.11161
0.496052
0.211342
0.0852462
0.0323508
0.0117559
0.00367891
0.00059527
4.83974e-05
2.24451e-06
6.28853e-08
1.2022e-09
1.98986e-11
3.94043e-13
1.342e-14
1.17994e-15
0
0
0
0
0
0
0
0
0
0
0
0
0
0
0
0
0
0
0
0
0
0
0
0
0
0
0
0
0
0
0
0
0
0
0
0
0
0
0
0
0
0
0
0
0
0
0
0
0
0
4.06699e-14
1.04325e-12
1.90516e-11
2.5361e-10
2.47885e-09
1.82337e-08
1.04162e-07
4.76966e-07
1.80182e-06
5.75724e-06
1.58934e-05
3.86291e-05
8.43146e-05
0.000168157
0.000311602
0.000545925
0.000922072
0.00153217
0.00255513
0.00435297
0.0076776
0.0141146
0.0269825
0.0530436
0.105452
0.208994
0.410144
0.795382
1.50396
2.90254
5.56819
9.58009
4.84532
2.2985
1.06198
0.472577
0.200666
0.0806173
0.0304703
0.0110547
0.0033722
0.000521686
4.11877e-05
1.86749e-06
5.15263e-08
9.81752e-10
1.64552e-11
3.35179e-13
1.12128e-14
1.18191e-15
0
0
0
0
0
0
0
0
0
0
0
0
0
0
0
0
0
0
0
0
0
0
0
0
0
0
0
0
0
0
0
0
0
0
0
0
0
0
0
0
0
0
0
0
0
0
0
0
0
0
4.06745e-14
1.04341e-12
1.89847e-11
2.52766e-10
2.4726e-09
1.82077e-08
1.04147e-07
4.77572e-07
1.80678e-06
5.7819e-06
1.59873e-05
3.89354e-05
8.51888e-05
0.000170233
0.000315941
0.000554475
0.00093827
0.0015624
0.00261189
0.0044619
0.00789305
0.0145533
0.0278902
0.0549177
0.109249
0.21651
0.424756
0.822758
1.55543
3.00191
5.75849
9.53629
4.69021
2.22219
1.0248
0.454945
0.192628
0.0771344
0.0290577
0.0105271
0.00313847
0.000467523
3.60014e-05
1.6003e-06
4.35439e-08
8.26487e-10
1.39876e-11
2.92421e-13
8.99076e-15
1.18363e-15
0
0
0
0
0
0
0
0
0
0
0
0
0
0
0
0
0
0
0
0
0
0
0
0
0
0
0
0
0
0
0
0
0
0
0
0
0
0
0
0
0
0
0
0
0
0
0
0
0
0
4.06762e-14
1.04348e-12
1.8972e-11
2.52747e-10
2.4738e-09
1.82297e-08
1.04356e-07
4.79031e-07
1.81458e-06
5.81547e-06
1.61084e-05
3.92861e-05
8.60521e-05
0.000172164
0.000319922
0.00056222
0.000952813
0.00158938
0.00266237
0.00455861
0.00808424
0.0149427
0.0286958
0.0565817
0.112617
0.223178
0.43773
0.847032
1.60122
3.09055
5.9288
9.44041
4.57567
2.16551
0.997059
0.441741
0.186592
0.0745142
0.0279954
0.0101288
0.00295943
0.000427054
3.21939e-05
1.40647e-06
3.77939e-08
7.1444e-10
1.21804e-11
2.59735e-13
9.00858e-15
1.18514e-15
0
0
0
0
0
0
0
0
0
0
0
0
0
0
0
0
0
0
0
0
0
0
0
0
0
0
0
0
0
0
0
0
0
0
0
0
0
0
0
0
0
0
0
0
0
0
0
0
0
0
4.06764e-14
1.04349e-12
1.90005e-11
2.53211e-10
2.47973e-09
1.82879e-08
1.04804e-07
4.81561e-07
1.82586e-06
5.85658e-06
1.62335e-05
3.96225e-05
8.68612e-05
0.000173935
0.000323516
0.000569123
0.000965658
0.00161306
0.0027065
0.00464297
0.00825086
0.015282
0.0293973
0.0580293
0.115545
0.228971
0.448997
0.868069
1.64096
3.16758
6.07698
9.32727
4.48954
2.12271
0.976045
0.431712
0.181997
0.0725169
0.0271856
0.00982392
0.0028206
0.000396281
2.93392e-05
1.2626e-06
3.35524e-08
6.31706e-10
1.08315e-11
2.33067e-13
9.02391e-15
0
0
0
0
0
0
0
0
0
0
0
0
0
0
0
0
0
0
0
0
0
0
0
0
0
0
0
0
0
0
0
0
0
0
0
0
0
0
0
0
0
0
0
0
0
0
0
0
0
0
0
4.06747e-14
1.04345e-12
1.90843e-11
2.54305e-10
2.4911e-09
1.83779e-08
1.05353e-07
4.84302e-07
1.8372e-06
5.89618e-06
1.63524e-05
3.99358e-05
8.76009e-05
0.000175527
0.000326701
0.000575174
0.000976818
0.0016335
0.00274443
0.00471532
0.00839356
0.0155723
0.0299968
0.0592617
0.118039
0.233899
0.458575
0.885902
1.67466
3.23291
6.2026
9.21823
4.42293
2.08956
0.959755
0.423932
0.178431
0.070966
0.0265574
0.00958669
0.00271149
0.000372518
2.71619e-05
1.15385e-06
3.03648e-08
5.695e-10
9.80663e-12
2.1461e-13
6.77777e-15
0
0
0
0
0
0
0
0
0
0
0
0
0
0
0
0
0
0
0
0
0
0
0
0
0
0
0
0
0
0
0
0
0
0
0
0
0
0
0
0
0
0
0
0
0
0
0
0
0
0
0
4.0672e-14
1.05094e-12
1.91744e-11
2.55507e-10
2.50329e-09
1.84717e-08
1.05918e-07
4.87047e-07
1.84823e-06
5.93373e-06
1.64627e-05
4.02209e-05
8.82628e-05
0.000176932
0.000329476
0.000580389
0.000986359
0.00165087
0.00277653
0.00477636
0.00851372
0.0158164
0.0305002
0.0602972
0.120127
0.238019
0.466572
0.90075
1.70272
3.2873
6.30707
9.12219
4.37025
2.06336
0.946884
0.417788
0.175616
0.0697429
0.0260628
0.00939946
0.00262492
0.000353962
2.54801e-05
1.07052e-06
2.7935e-08
5.22104e-10
9.02211e-12
1.98121e-13
6.78612e-15
0
0
0
0
0
0
0
0
0
0
0
0
0
0
0
0
0
0
0
0
0
0
0
0
0
0
0
0
0
0
0
0
0
0
0
0
0
0
0
0
0
0
0
0
0
0
0
0
0
0
0
4.06688e-14
1.05841e-12
1.92642e-11
2.56771e-10
2.51575e-09
1.85655e-08
1.06471e-07
4.89674e-07
1.85857e-06
5.96824e-06
1.65623e-05
4.04742e-05
8.88426e-05
0.000178146
0.000331849
0.000584809
0.000994384
0.0016654
0.00280327
0.00482706
0.00861334
0.0160185
0.0309164
0.0611516
0.121848
0.241409
0.473147
0.912928
1.72574
3.33189
6.39265
9.04129
4.32814
2.04244
0.936621
0.412895
0.173378
0.0687713
0.0256707
0.00925053
0.00255603
0.000339406
2.4173e-05
1.0062e-06
2.60687e-08
4.85705e-10
8.41563e-12
1.87854e-13
6.79312e-15
0
0
0
0
0
0
0
0
0
0
0
0
0
0
0
0
0
0
0
0
0
0
0
0
0
0
0
0
0
0
0
0
0
0
0
0
0
0
0
0
0
0
0
0
0
0
0
0
0
0
0
4.06654e-14
1.05832e-12
1.93609e-11
2.57993e-10
2.52771e-09
1.86542e-08
1.06986e-07
4.92081e-07
1.8679e-06
5.99891e-06
1.66495e-05
4.06933e-05
8.93383e-05
0.000179173
0.000333838
0.000588482
0.00100101
0.00167733
0.00282514
0.00486844
0.00869452
0.016183
0.0312547
0.0618453
0.123243
0.244155
0.478467
0.922763
1.74433
3.3679
6.46169
8.97503
4.29455
2.02577
0.928453
0.409006
0.171601
0.0680011
0.0253605
0.00913238
0.00250145
0.000328019
2.31589e-05
9.56605e-07
2.46351e-08
4.57761e-10
7.94684e-12
1.77512e-13
6.79891e-15
0
0
0
0
0
0
0
0
0
0
0
0
0
0
0
0
0
0
0
0
0
0
0
0
0
0
0
0
0
0
0
0
0
0
0
0
0
0
0
0
0
0
0
0
0
0
0
0
0
0
0
4.06622e-14
1.06579e-12
1.94435e-11
2.59111e-10
2.53856e-09
1.87338e-08
1.07442e-07
4.94189e-07
1.87598e-06
6.02515e-06
1.67234e-05
4.08769e-05
8.97495e-05
0.000180018
0.00033546
0.000591458
0.00100635
0.0016869
0.00284264
0.00490146
0.00875918
0.0163138
0.0315234
0.0623971
0.12435
0.246332
0.482681
0.93054
1.75903
3.39636
6.51624
8.92222
4.26813
2.01268
0.922044
0.405958
0.170209
0.0673988
0.0251183
0.00903989
0.00245881
0.000319246
2.23836e-05
9.18867e-07
2.3547e-08
4.36535e-10
7.59008e-12
1.71337e-13
6.80359e-15
0
0
0
0
0
0
0
0
0
0
0
0
0
0
0
0
0
0
0
0
0
0
0
0
0
0
0
0
0
0
0
0
0
0
0
0
0
0
0
0
0
0
0
0
0
0
0
0
0
0
0
4.06594e-14
1.07327e-12
1.95124e-11
2.60062e-10
2.54778e-09
1.88009e-08
1.07823e-07
4.95936e-07
1.88261e-06
6.04654e-06
1.67831e-05
4.1024e-05
9.00768e-05
0.000180686
0.000336734
0.000593782
0.00101049
0.00169431
0.00285615
0.00492692
0.008809
0.0164146
0.0317302
0.0628213
0.125199
0.248001
0.485912
0.936493
1.77029
3.41816
6.55797
8.88159
4.24796
2.00269
0.917156
0.403635
0.16915
0.0669406
0.0249342
0.00896944
0.00242606
0.000312852
2.18161e-05
8.91186e-07
2.27478e-08
4.20891e-10
7.32696e-12
1.65114e-13
6.80724e-15
0
0
0
0
0
0
0
0
0
0
0
0
0
0
0
0
0
0
0
0
0
0
0
0
0
0
0
0
0
0
0
0
0
0
0
0
0
0
0
0
0
0
0
0
0
0
0
0
0
0
0
4.06571e-14
1.07321e-12
1.95744e-11
2.60819e-10
2.55498e-09
1.88531e-08
1.08118e-07
4.9728e-07
1.88768e-06
6.06278e-06
1.68282e-05
4.11345e-05
9.03211e-05
0.000181181
0.000337675
0.000595492
0.00101354
0.00169973
0.00286601
0.00494548
0.00884528
0.0164879
0.0318805
0.0631287
0.125816
0.249212
0.488255
0.940808
1.77844
3.43396
6.58822
8.85205
4.23335
1.99545
0.913621
0.401956
0.168385
0.0666099
0.0248016
0.00891855
0.00240242
0.000308348
2.14182e-05
8.71849e-07
2.21909e-08
4.09995e-10
7.13874e-12
1.60967e-13
6.80992e-15
0
0
0
0
0
0
0
0
0
0
0
0
0
0
0
0
0
0
0
0
0
0
0
0
0
0
0
0
0
0
0
0
0
0
0
0
0
0
0
0
0
0
0
0
0
0
0
0
0
0
0
4.06555e-14
1.07316e-12
1.96158e-11
2.61332e-10
2.55991e-09
1.88886e-08
1.08318e-07
4.98188e-07
1.8911e-06
6.07367e-06
1.68582e-05
4.1208e-05
9.0483e-05
0.000181509
0.000338295
0.000596614
0.00101553
0.00170328
0.00287245
0.00495758
0.00886892
0.0165357
0.0319785
0.0633289
0.126217
0.25
0.489779
0.943612
1.78375
3.44423
6.60788
8.8328
4.22386
1.99075
0.911325
0.400867
0.167888
0.0663955
0.0247156
0.00888553
0.00238714
0.000305465
2.11654e-05
8.59643e-07
2.18416e-08
4.03196e-10
7.02586e-12
1.58904e-13
6.81165e-15
0
0
0
0
0
0
0
0
0
0
0
0
0
0
0
0
0
0
0
0
0
0
0
0
0
0
0
0
0
0
0
0
0
0
0
0
0
0
0
0
0
0
0
0
0
0
0
0
0
0
0
4.06548e-14
1.07314e-12
1.96294e-11
2.61589e-10
2.56229e-09
1.89059e-08
1.08416e-07
4.9863e-07
1.89276e-06
6.07897e-06
1.68729e-05
4.12437e-05
9.05617e-05
0.000181668
0.000338596
0.000597159
0.00101649
0.001705
0.00287558
0.00496346
0.00888042
0.0165589
0.0320261
0.0634263
0.126413
0.250384
0.490521
0.944979
1.78633
3.44924
6.61747
8.82339
4.21922
1.98846
0.910206
0.400336
0.167647
0.0662912
0.0246738
0.0088695
0.00237977
0.000304086
2.10454e-05
8.53891e-07
2.16782e-08
4.00044e-10
6.97314e-12
1.58929e-13
6.81244e-15
0
0
0
0
0
0
0
0
0
0
0
0
0
0
0
0
0
0
0
0
0
0
0
0
0
0
0
0
0
0
0
0
0
0
0
0
0
0
0
0
0
0
0
0
0
0
0
0
0
0
0
4.06548e-14
1.07314e-12
1.96294e-11
2.61576e-10
2.56228e-09
1.89058e-08
1.08415e-07
4.9863e-07
1.89276e-06
6.07897e-06
1.68729e-05
4.12437e-05
9.05616e-05
0.000181668
0.000338596
0.000597159
0.00101649
0.001705
0.00287558
0.00496347
0.00888042
0.0165589
0.0320262
0.0634264
0.126413
0.250384
0.490522
0.94498
1.78633
3.44924
6.61748
8.82338
4.21922
1.98846
0.910204
0.400335
0.167647
0.0662911
0.0246737
0.00886948
0.00237976
0.000304084
2.10452e-05
8.53884e-07
2.1678e-08
4.00037e-10
6.97314e-12
1.58929e-13
6.81245e-15
0
0
0
0
0
0
0
0
0
0
0
0
0
0
0
0
0
0
0
0
0
0
0
0
0
0
0
0
0
0
0
0
0
0
0
0
0
0
0
0
0
0
0
0
0
0
0
0
0
0
0
4.06555e-14
1.07316e-12
1.96158e-11
2.61332e-10
2.55988e-09
1.88885e-08
1.08318e-07
4.98186e-07
1.89109e-06
6.07365e-06
1.68582e-05
4.12079e-05
9.04828e-05
0.000181508
0.000338294
0.000596613
0.00101553
0.00170328
0.00287245
0.00495758
0.00886892
0.0165357
0.0319785
0.0633289
0.126217
0.250001
0.48978
0.943614
1.78375
3.44424
6.60791
8.83276
4.22384
1.99074
0.91132
0.400864
0.167887
0.066395
0.0247154
0.00888545
0.0023871
0.000305459
2.11649e-05
8.59621e-07
2.1841e-08
4.03189e-10
7.02586e-12
1.58904e-13
6.81165e-15
0
0
0
0
0
0
0
0
0
0
0
0
0
0
0
0
0
0
0
0
0
0
0
0
0
0
0
0
0
0
0
0
0
0
0
0
0
0
0
0
0
0
0
0
0
0
0
0
0
0
0
4.06571e-14
1.07321e-12
1.95744e-11
2.60819e-10
2.55495e-09
1.88529e-08
1.08117e-07
4.97276e-07
1.88767e-06
6.06275e-06
1.68281e-05
4.11344e-05
9.03208e-05
0.000181181
0.000337675
0.000595491
0.00101353
0.00169973
0.00286601
0.00494548
0.00884527
0.0164879
0.0318806
0.0631288
0.125816
0.249213
0.488256
0.940812
1.77845
3.43398
6.58826
8.85199
4.23332
1.99544
0.913613
0.401953
0.168383
0.0666091
0.0248012
0.00891842
0.00240236
0.000308338
2.14174e-05
8.7181e-07
2.21898e-08
4.09975e-10
7.13875e-12
1.60968e-13
6.80993e-15
0
0
0
0
0
0
0
0
0
0
0
0
0
0
0
0
0
0
0
0
0
0
0
0
0
0
0
0
0
0
0
0
0
0
0
0
0
0
0
0
0
0
0
0
0
0
0
0
0
0
0
4.06594e-14
1.07327e-12
1.95124e-11
2.60062e-10
2.54772e-09
1.88006e-08
1.07822e-07
4.95931e-07
1.88259e-06
6.04649e-06
1.6783e-05
4.10238e-05
9.00765e-05
0.000180685
0.000336733
0.000593781
0.00101049
0.00169431
0.00285615
0.00492692
0.00880901
0.0164146
0.0317302
0.0628214
0.1252
0.248002
0.485914
0.936499
1.7703
3.41819
6.55803
8.88151
4.24792
2.00266
0.917145
0.40363
0.169148
0.0669396
0.0249338
0.00896927
0.00242599
0.000312839
2.18149e-05
8.91131e-07
2.27462e-08
4.20864e-10
7.3231e-12
1.65114e-13
6.80725e-15
0
0
0
0
0
0
0
0
0
0
0
0
0
0
0
0
0
0
0
0
0
0
0
0
0
0
0
0
0
0
0
0
0
0
0
0
0
0
0
0
0
0
0
0
0
0
0
0
0
0
0
4.06622e-14
1.06579e-12
1.94436e-11
2.59098e-10
2.5385e-09
1.87334e-08
1.0744e-07
4.94182e-07
1.87595e-06
6.02509e-06
1.67233e-05
4.08766e-05
8.97491e-05
0.000180017
0.000335459
0.000591456
0.00100634
0.0016869
0.00284264
0.00490146
0.0087592
0.0163139
0.0315235
0.0623957
0.12435
0.246333
0.482684
0.930547
1.75905
3.3964
6.51631
8.92211
4.26808
2.01265
0.92203
0.405951
0.170206
0.0673974
0.0251177
0.00903967
0.00245872
0.000319228
2.23821e-05
9.18793e-07
2.35449e-08
4.36495e-10
7.5901e-12
1.71337e-13
6.8036e-15
0
0
0
0
0
0
0
0
0
0
0
0
0
0
0
0
0
0
0
0
0
0
0
0
0
0
0
0
0
0
0
0
0
0
0
0
0
0
0
0
0
0
0
0
0
0
0
0
0
0
0
4.06654e-14
1.05832e-12
1.93538e-11
2.5798e-10
2.52764e-09
1.86538e-08
1.06983e-07
4.92073e-07
1.86788e-06
5.99884e-06
1.66494e-05
4.0693e-05
8.93377e-05
0.000179172
0.000333836
0.00058848
0.00100101
0.00167733
0.00282514
0.00486844
0.00869453
0.016183
0.0312547
0.0618482
0.123244
0.244157
0.478471
0.922772
1.74435
3.36794
6.46178
8.97491
4.29448
2.02574
0.928436
0.408998
0.171597
0.0679994
0.0253598
0.00913211
0.00250133
0.000327997
2.3157e-05
9.5651e-07
2.46323e-08
4.57707e-10
7.94686e-12
1.77512e-13
6.79892e-15
0
0
0
0
0
0
0
0
0
0
0
0
0
0
0
0
0
0
0
0
0
0
0
0
0
0
0
0
0
0
0
0
0
0
0
0
0
0
0
0
0
0
0
0
0
0
0
0
0
0
0
4.06688e-14
1.05841e-12
1.92642e-11
2.56758e-10
2.51567e-09
1.8565e-08
1.06468e-07
4.89664e-07
1.85854e-06
5.96816e-06
1.65621e-05
4.04738e-05
8.8842e-05
0.000178145
0.000331848
0.000584807
0.000994381
0.0016654
0.00280326
0.00482706
0.00861334
0.0160185
0.0309164
0.0611517
0.121849
0.241411
0.473151
0.912939
1.72576
3.33194
6.39276
9.04114
4.32806
2.0424
0.9366
0.412885
0.173373
0.0687692
0.0256699
0.00925021
0.00255589
0.000339378
2.41706e-05
1.00608e-06
2.60653e-08
4.85638e-10
8.41566e-12
1.87855e-13
6.79313e-15
0
0
0
0
0
0
0
0
0
0
0
0
0
0
0
0
0
0
0
0
0
0
0
0
0
0
0
0
0
0
0
0
0
0
0
0
0
0
0
0
0
0
0
0
0
0
0
0
0
0
0
4.06721e-14
1.05094e-12
1.91674e-11
2.55495e-10
2.50321e-09
1.84711e-08
1.05915e-07
4.87036e-07
1.8482e-06
5.93364e-06
1.64625e-05
4.02205e-05
8.8262e-05
0.00017693
0.000329474
0.000580386
0.000986355
0.00165087
0.00277652
0.00477635
0.00851371
0.0158164
0.0305003
0.0603017
0.120128
0.238021
0.466577
0.900761
1.70275
3.28736
6.3072
9.12202
4.37016
2.06332
0.946861
0.417776
0.175611
0.0697405
0.0260619
0.00939909
0.00262476
0.00035393
2.54772e-05
1.07037e-06
2.79308e-08
5.22024e-10
9.02214e-12
1.98121e-13
6.78613e-15
0
0
0
0
0
0
0
0
0
0
0
0
0
0
0
0
0
0
0
0
0
0
0
0
0
0
0
0
0
0
0
0
0
0
0
0
0
0
0
0
0
0
0
0
0
0
0
0
0
0
0
4.06748e-14
1.04345e-12
1.90843e-11
2.54292e-10
2.491e-09
1.83773e-08
1.0535e-07
4.8429e-07
1.83716e-06
5.89608e-06
1.63522e-05
3.99353e-05
8.76e-05
0.000175526
0.000326699
0.00057517
0.000976812
0.00163349
0.00274442
0.0047153
0.00839353
0.0155723
0.0299968
0.0592623
0.11804
0.233901
0.45858
0.885914
1.67469
3.23298
6.20274
9.21805
4.42283
2.08951
0.959728
0.423919
0.178425
0.0709633
0.0265563
0.00958626
0.00271131
0.00037248
2.71584e-05
1.15368e-06
3.03596e-08
5.694e-10
9.80667e-12
2.14611e-13
6.77779e-15
0
0
0
0
0
0
0
0
0
0
0
0
0
0
0
0
0
0
0
0
0
0
0
0
0
0
0
0
0
0
0
0
0
0
0
0
0
0
0
0
0
0
0
0
0
0
0
0
0
0
0
4.06764e-14
1.04349e-12
1.90005e-11
2.53198e-10
2.47963e-09
1.82872e-08
1.048e-07
4.81547e-07
1.82581e-06
5.85646e-06
1.62332e-05
3.9622e-05
8.68602e-05
0.000173933
0.000323513
0.000569118
0.000965651
0.00161305
0.00270648
0.00464295
0.00825084
0.015282
0.0293974
0.0580287
0.115545
0.228973
0.449002
0.868082
1.64099
3.16765
6.07713
9.32709
4.48942
2.12265
0.976014
0.431697
0.18199
0.0725139
0.0271843
0.00982343
0.00282038
0.000396236
2.93351e-05
1.26239e-06
3.35461e-08
6.3158e-10
1.08277e-11
2.33068e-13
9.02394e-15
0
0
0
0
0
0
0
0
0
0
0
0
0
0
0
0
0
0
0
0
0
0
0
0
0
0
0
0
0
0
0
0
0
0
0
0
0
0
0
0
0
0
0
0
0
0
0
0
0
0
0
4.06763e-14
1.04348e-12
1.8972e-11
2.52734e-10
2.47369e-09
1.8229e-08
1.04353e-07
4.79017e-07
1.81453e-06
5.81534e-06
1.61081e-05
3.92855e-05
8.60508e-05
0.000172162
0.000319918
0.000562213
0.000952803
0.00158936
0.00266234
0.00455857
0.00808418
0.0149427
0.0286957
0.0565814
0.112617
0.22318
0.437734
0.847044
1.60125
3.09062
5.92896
9.44024
4.57553
2.16543
0.997023
0.441724
0.186584
0.0745107
0.0279939
0.0101282
0.00295918
0.000427
3.21888e-05
1.40621e-06
3.77861e-08
7.14282e-10
1.21766e-11
2.59736e-13
9.00861e-15
1.18515e-15
0
0
0
0
0
0
0
0
0
0
0
0
0
0
0
0
0
0
0
0
0
0
0
0
0
0
0
0
0
0
0
0
0
0
0
0
0
0
0
0
0
0
0
0
0
0
0
0
0
0
4.06745e-14
1.04341e-12
1.89776e-11
2.52753e-10
2.47248e-09
1.8207e-08
1.04144e-07
4.77558e-07
1.80674e-06
5.78177e-06
1.5987e-05
3.89347e-05
8.51873e-05
0.000170231
0.000315936
0.000554467
0.000938257
0.00156238
0.00261186
0.00446185
0.00789297
0.0145532
0.02789
0.0549175
0.109249
0.216511
0.42476
0.822769
1.55546
3.00198
5.75865
9.53616
4.69004
2.22211
1.02476
0.454925
0.192618
0.0771303
0.029056
0.0105264
0.00313818
0.000467459
3.59952e-05
1.59998e-06
4.3534e-08
8.2629e-10
1.39839e-11
2.92422e-13
8.99079e-15
1.18363e-15
0
0
0
0
0
0
0
0
0
0
0
0
0
0
0
0
0
0
0
0
0
0
0
0
0
0
0
0
0
0
0
0
0
0
0
0
0
0
0
0
0
0
0
0
0
0
0
0
0
0
4.06699e-14
1.04326e-12
1.90517e-11
2.53598e-10
2.47873e-09
1.82329e-08
1.04158e-07
4.7695e-07
1.80177e-06
5.7571e-06
1.58931e-05
3.86284e-05
8.43133e-05
0.000168154
0.000311597
0.000545916
0.000922057
0.00153214
0.00255509
0.0043529
0.00767749
0.0141144
0.0269821
0.0530433
0.105451
0.208994
0.410147
0.795391
1.50399
2.90261
5.56834
9.58004
4.84511
2.2984
1.06192
0.472551
0.200655
0.0806122
0.0304682
0.0110539
0.00337187
0.000521607
4.11799e-05
1.86708e-06
5.15134e-08
9.8149e-10
1.64515e-11
3.3518e-13
1.12128e-14
1.18191e-15
0
0
0
0
0
0
0
0
0
0
0
0
0
0
0
0
0
0
0
0
0
0
0
0
0
0
0
0
0
0
0
0
0
0
0
0
0
0
0
0
0
0
0
0
0
0
0
0
0
0
4.06604e-14
1.0505e-12
1.9228e-11
2.55776e-10
2.49718e-09
1.83398e-08
1.04574e-07
4.77874e-07
1.80137e-06
5.74323e-06
1.58207e-05
3.83718e-05
8.35765e-05
0.000166238
0.000307055
0.000536548
0.000904285
0.00149884
0.00249235
0.00423226
0.00743874
0.0136282
0.0259764
0.0509655
0.101239
0.200656
0.393951
0.76501
1.44711
2.7933
5.35994
9.5345
5.05402
2.40064
1.11154
0.496025
0.211339
0.0852406
0.0323482
0.0117549
0.00367855
0.000595178
4.83876e-05
2.24398e-06
6.28682e-08
1.20185e-09
1.9895e-11
3.94046e-13
1.342e-14
1.17994e-15
0
0
0
0
0
0
0
0
0
0
0
0
0
0
0
0
0
0
0
0
0
0
0
0
0
0
0
0
0
0
0
0
0
0
0
0
0
0
0
0
0
0
0
0
0
0
0
0
0
0
4.06395e-14
1.0725e-12
1.96365e-11
2.60446e-10
2.53612e-09
1.85771e-08
1.05636e-07
4.81336e-07
1.80899e-06
5.74986e-06
1.57904e-05
3.81832e-05
8.29277e-05
0.000164498
0.000303003
0.0005276
0.000885573
0.00146313
0.00242444
0.00410113
0.0071788
0.0130987
0.0248799
0.0486986
0.0966283
0.191507
0.376147
0.731347
1.38416
2.67396
5.13368
9.37473
5.32815
2.53437
1.17638
0.526712
0.225333
0.0913149
0.0348237
0.0126801
0.00407885
0.000696289
5.86206e-05
2.78995e-06
7.94968e-08
1.52346e-09
2.48054e-11
4.74914e-13
1.56102e-14
1.17777e-15
0
0
0
0
0
0
0
0
0
0
0
0
0
0
0
0
0
0
0
0
0
0
0
0
0
0
0
0
0
0
0
0
0
0
0
0
0
0
0
0
0
0
0
0
0
0
0
0
0
0
4.87453e-14
1.10203e-12
2.01542e-11
2.68152e-10
2.60247e-09
1.89958e-08
1.07607e-07
4.88388e-07
1.82809e-06
5.78679e-06
1.58264e-05
3.81145e-05
8.24498e-05
0.000162926
0.000299023
0.000518841
0.000867365
0.00142557
0.00235239
0.00396142
0.00690177
0.0125346
0.0237124
0.0462823
0.0917242
0.181788
0.357299
0.695319
1.31753
2.54474
4.88789
9.09412
5.66935
2.70113
1.25752
0.565298
0.243026
0.0990463
0.038
0.0138739
0.00459302
0.000835268
7.33319e-05
3.59651e-06
1.04445e-07
2.00557e-09
3.20163e-11
5.91675e-13
1.77796e-14
1.1753e-15
0
0
0
0
0
0
0
0
0
0
0
0
0
0
0
0
0
0
0
0
0
0
0
0
0
0
0
0
0
0
0
0
0
0
0
0
0
0
0
0
0
0
0
0
0
0
0
0
0
0
4.87074e-14
1.13868e-12
2.08967e-11
2.78405e-10
2.7136e-09
1.97515e-08
1.11091e-07
5.01088e-07
1.8648e-06
5.8699e-06
1.59653e-05
3.82425e-05
8.22951e-05
0.000161792
0.000295482
0.000510309
0.000849368
0.00138943
0.00227745
0.00381364
0.00661189
0.0119446
0.0224864
0.0437299
0.0865004
0.171362
0.336931
0.656105
1.24462
2.4042
4.62032
8.70607
6.07458
2.89986
1.35477
0.611875
0.26456
0.108544
0.0419433
0.0153697
0.00523652
0.0010246
9.46506e-05
4.80769e-06
1.42576e-07
2.73764e-09
4.2561e-11
7.47766e-13
1.99302e-14
1.17283e-15
0
0
0
0
0
0
0
0
0
0
0
0
0
0
0
0
0
0
0
0
0
0
0
0
0
0
0
0
0
0
0
0
0
0
0
0
0
0
0
0
0
0
0
0
0
0
0
0
0
0
4.86591e-14
1.19748e-12
2.20002e-11
2.9257e-10
2.83979e-09
2.06792e-08
1.16367e-07
5.20946e-07
1.92429e-06
6.01311e-06
1.62389e-05
3.86331e-05
8.25952e-05
0.000161369
0.000292959
0.000503086
0.000832892
0.00135589
0.00221236
0.00367965
0.00632909
0.0113641
0.0212714
0.0411809
0.0812331
0.160732
0.315921
0.615125
1.16725
2.25617
4.33889
8.24295
6.52701
3.12255
1.46438
0.664768
0.289231
0.119537
0.0465624
0.0171475
0.00598897
0.00127345
0.000125179
6.63961e-06
2.02419e-07
3.90298e-09
5.91021e-11
9.78362e-13
2.42557e-14
1.16992e-15
0
0
0
0
0
0
0
0
0
0
0
0
0
0
0
0
0
0
0
0
0
0
0
0
0
0
0
0
0
0
0
0
0
0
0
0
0
0
0
0
0
0
0
0
0
0
0
0
0
0
4.85984e-14
1.27067e-12
2.35775e-11
3.14137e-10
3.03998e-09
2.19721e-08
1.22926e-07
5.49161e-07
2.01049e-06
6.22827e-06
1.66778e-05
3.93555e-05
8.34932e-05
0.000161941
0.00029201
0.00049832
0.000820187
0.00132777
0.00215505
0.00356754
0.00610201
0.0108781
0.020246
0.0390333
0.0768226
0.151927
0.2988
0.58253
1.10961
2.10738
4.06976
7.77319
6.981
3.34563
1.57445
0.718172
0.314347
0.130851
0.0513827
0.0190362
0.00677158
0.00156925
0.000165451
9.19753e-06
2.87995e-07
5.53995e-09
8.0752e-11
1.25108e-12
3.07635e-14
1.16786e-15
0
0
0
0
0
0
0
0
0
0
0
0
0
0
0
0
0
0
0
0
0
0
0
0
0
0
0
0
0
0
0
0
0
0
0
0
0
0
0
0
0
0
0
0
0
0
0
0
0
0
5.65838e-14
1.40984e-12
2.6218e-11
3.47865e-10
3.33281e-09
2.37782e-08
1.3105e-07
5.78606e-07
2.10825e-06
6.48018e-06
1.72017e-05
4.02487e-05
8.47194e-05
0.000163153
0.00029234
0.0004961
0.000812465
0.00130921
0.00211543
0.0034862
0.00593927
0.0105436
0.0195419
0.0375387
0.0736903
0.14549
0.285821
0.556635
1.06147
2.01403
3.88875
7.44094
7.28245
3.4963
1.65007
0.755512
0.332243
0.139085
0.0549742
0.0204816
0.00736667
0.00183754
0.000209008
1.23516e-05
4.05527e-07
7.97329e-09
1.14121e-10
1.66313e-12
3.7198e-14
1.16545e-15
0
0
0
0
0
0
0
0
0
0
0
0
0
0
0
0
0
0
0
0
0
0
0
0
0
)
;

boundaryField
{
    fuel
    {
        type            calculated;
        value           uniform 0;
    }
    air
    {
        type            calculated;
        value           uniform 0;
    }
    outlet
    {
        type            calculated;
        value           uniform 0;
    }
    frontAndBack
    {
        type            empty;
    }
}


// ************************************************************************* //
