/*--------------------------------*- C++ -*----------------------------------*\
  =========                 |
  \\      /  F ield         | OpenFOAM: The Open Source CFD Toolbox
   \\    /   O peration     | Website:  https://openfoam.org
    \\  /    A nd           | Version:  10
     \\/     M anipulation  |
\*---------------------------------------------------------------------------*/
FoamFile
{
    format      ascii;
    class       volScalarField;
    location    "1";
    object      RR.CH4;
}
// * * * * * * * * * * * * * * * * * * * * * * * * * * * * * * * * * * * * * //

dimensions      [1 -3 -1 0 0 0 0];

internalField   nonuniform List<scalar> 
4000
(
0
0
0
0
0
0
0
0
0
0
0
0
0
0
0
0
0
0
0
0
0
0
0
0
0
0
-4.79945e-13
-9.58701e-12
-1.2678e-10
-1.21491e-09
-8.6682e-09
-4.77737e-08
-2.10925e-07
-7.68537e-07
-2.36226e-06
-6.27063e-06
-1.4672e-05
-3.0883e-05
-5.94745e-05
-0.000106567
-0.000180845
-0.000296171
-0.000477253
-0.000771148
-0.00127085
-0.00216508
-0.00384353
-0.0071237
-0.0136841
-0.0268618
-0.0530354
-0.104189
-0.202907
-0.386929
-0.734149
-1.4175
-2.71229
-2.65487
-1.27462
-0.601557
-0.275437
-0.121128
-0.0507074
-0.0200428
-0.00746738
-0.00268586
-0.000670017
-7.6216e-05
-4.50432e-06
-1.47894e-07
-2.90793e-09
-4.16227e-11
-6.0654e-13
-1.32488e-14
-5.7294e-16
-5.23111e-17
-8.97249e-18
-2.39595e-18
-8.3561e-19
-3.37773e-19
-1.46618e-19
-6.57362e-20
-2.96714e-20
-1.33856e-20
-5.96673e-21
-2.64881e-21
-1.16187e-21
-5.04436e-22
-2.17554e-22
-9.35363e-23
-3.97455e-23
-1.68097e-23
-7.09741e-24
-2.99772e-24
-1.27473e-24
-5.46314e-25
-2.52145e-25
-1.0973e-25
-4.21701e-26
-7.66066e-27
0
0
0
0
0
0
0
0
0
0
0
0
0
0
0
0
0
0
0
0
0
0
0
0
0
0
-4.81198e-13
-8.49738e-12
-1.14454e-10
-1.10831e-09
-8.0097e-09
-4.48118e-08
-2.00191e-07
-7.32903e-07
-2.27043e-06
-6.07963e-06
-1.43464e-05
-3.04359e-05
-5.90325e-05
-0.000106447
-0.000181653
-0.000298984
-0.000484012
-0.000785582
-0.00130048
-0.00222436
-0.00396538
-0.00738019
-0.0142286
-0.0280042
-0.0553803
-0.108918
-0.212342
-0.40447
-0.768167
-1.48347
-2.8334
-2.54494
-1.21967
-0.573977
-0.261817
-0.1146
-0.0477042
-0.0187325
-0.00693995
-0.0024688
-0.000572168
-6.033e-05
-3.35397e-06
-1.05025e-07
-2.02037e-09
-2.94501e-11
-4.56367e-13
-1.08846e-14
-5.12968e-16
-4.9938e-17
-8.8973e-18
-2.42461e-18
-8.57342e-19
-3.48708e-19
-1.53327e-19
-6.90966e-20
-3.1506e-20
-1.42268e-20
-6.40655e-21
-2.84961e-21
-1.25271e-21
-5.45077e-22
-2.35484e-22
-1.00708e-22
-4.27339e-23
-1.8005e-23
-7.58303e-24
-3.19384e-24
-1.35411e-24
-5.81334e-25
-2.63818e-25
-1.24905e-25
-4.49425e-26
-8.09841e-27
0
0
0
0
0
0
0
0
0
0
0
0
0
0
0
0
0
0
0
0
0
0
0
0
0
0
-4.82003e-13
-8.06628e-12
-1.06769e-10
-1.03537e-09
-7.5385e-09
-4.24204e-08
-1.89906e-07
-7.01477e-07
-2.192e-06
-5.91964e-06
-1.40831e-05
-3.01086e-05
-5.88241e-05
-0.000106793
-0.00018339
-0.000303615
-0.000494263
-0.000806472
-0.00134134
-0.00230713
-0.00414254
-0.00775402
-0.0150115
-0.0296108
-0.0585902
-0.115159
-0.224224
-0.42548
-0.822407
-1.58158
-3.00466
-2.37942
-1.13833
-0.533846
-0.242345
-0.105442
-0.0435787
-0.0169749
-0.00625144
-0.00218344
-0.000464307
-4.56441e-05
-2.42112e-06
-7.38152e-08
-1.42333e-09
-2.15528e-11
-3.57486e-13
-9.226e-15
-4.65817e-16
-4.75984e-17
-8.73758e-18
-2.41978e-18
-8.64586e-19
-3.53569e-19
-1.55766e-19
-7.06239e-20
-3.22703e-20
-1.46856e-20
-6.65514e-21
-2.96436e-21
-1.31008e-21
-5.71375e-22
-2.47437e-22
-1.05789e-22
-4.51246e-23
-1.9051e-23
-8.03128e-24
-3.38061e-24
-1.42882e-24
-6.28028e-25
-3.01173e-25
-1.19068e-25
-4.08568e-26
-7.98897e-27
0
0
0
0
0
0
0
0
0
0
0
0
0
0
0
0
0
0
0
0
0
0
0
0
0
0
-4.8262e-13
-7.6294e-12
-1.01495e-10
-9.89387e-10
-7.20031e-09
-4.04974e-08
-1.82667e-07
-6.7979e-07
-2.13979e-06
-5.81991e-06
-1.39407e-05
-2.99992e-05
-5.89783e-05
-0.000107713
-0.000186023
-0.000309621
-0.000506488
-0.000830199
-0.00139019
-0.00241023
-0.00435414
-0.00819693
-0.0159408
-0.0315321
-0.0624658
-0.122819
-0.239164
-0.453687
-0.87637
-1.68417
-3.17349
-2.21448
-1.05714
-0.493884
-0.223062
-0.0964471
-0.0395706
-0.0152908
-0.00560325
-0.00190911
-0.000373569
-3.45117e-05
-1.75308e-06
-5.19912e-08
-9.98323e-10
-1.55204e-11
-2.71942e-13
-7.52656e-15
-4.06346e-16
-4.37382e-17
-8.31477e-18
-2.35287e-18
-8.52507e-19
-3.52354e-19
-1.55765e-19
-7.1235e-20
-3.25761e-20
-1.4915e-20
-6.76987e-21
-3.02173e-21
-1.33877e-21
-5.85719e-22
-2.5461e-22
-1.09375e-22
-4.64694e-23
-1.96486e-23
-8.29277e-24
-3.49267e-24
-1.48485e-24
-6.58379e-25
-3.21018e-25
-1.26073e-25
-4.30456e-26
-8.24432e-27
0
0
0
0
0
0
0
0
0
0
0
0
0
0
0
0
0
0
0
0
0
0
0
0
0
0
-4.83081e-13
-7.41304e-12
-9.78477e-11
-9.48877e-10
-6.92486e-09
-3.92275e-08
-1.78037e-07
-6.66409e-07
-2.1095e-06
-5.76928e-06
-1.3894e-05
-3.00556e-05
-5.93917e-05
-0.000109003
-0.000189134
-0.000316181
-0.000519663
-0.00085752
-0.00144406
-0.0025159
-0.00456923
-0.00864384
-0.016871
-0.0334358
-0.0662658
-0.130243
-0.253457
-0.480261
-0.927601
-1.78171
-3.31497
-2.06676
-0.984695
-0.458431
-0.206081
-0.0885965
-0.0361081
-0.0138532
-0.00505793
-0.00167449
-0.000304536
-2.6738e-05
-1.3114e-06
-3.80852e-08
-7.31339e-10
-1.16751e-11
-2.15075e-13
-6.3289e-15
-3.61794e-16
-4.06792e-17
-7.95751e-18
-2.29555e-18
-8.3801e-19
-3.49926e-19
-1.55156e-19
-7.1235e-20
-3.2729e-20
-1.49915e-20
-6.80811e-21
-3.05042e-21
-1.35312e-21
-5.92891e-22
-2.58196e-22
-1.1057e-22
-4.72165e-23
-2.00222e-23
-8.44219e-24
-3.56738e-24
-1.52688e-24
-6.74721e-25
-3.35026e-25
-1.36579e-25
-4.62558e-26
-8.39024e-27
0
0
0
0
0
0
0
0
0
0
0
0
0
0
0
0
0
0
0
0
0
0
0
0
0
0
-4.83381e-13
-7.19417e-12
-9.50079e-11
-9.24659e-10
-6.77221e-09
-3.85086e-08
-1.75466e-07
-6.59446e-07
-2.09603e-06
-5.75613e-06
-1.39191e-05
-3.02299e-05
-5.9965e-05
-0.000110454
-0.000192327
-0.000322819
-0.000533357
-0.000883785
-0.00149499
-0.00261689
-0.00477486
-0.00906947
-0.0177515
-0.0352236
-0.0698089
-0.137114
-0.266591
-0.504552
-0.974707
-1.87131
-3.41729
-1.94236
-0.923899
-0.428849
-0.192014
-0.082146
-0.0332894
-0.0126953
-0.00462267
-0.00148702
-0.00025386
-2.13735e-05
-1.01728e-06
-2.89873e-08
-5.5552e-10
-9.04594e-12
-1.73445e-13
-5.36941e-15
-3.2235e-16
-3.76718e-17
-7.57192e-18
-2.21906e-18
-8.18691e-19
-3.4385e-19
-1.53327e-19
-7.03185e-20
-3.24232e-20
-1.4915e-20
-6.80812e-21
-3.05042e-21
-1.3579e-21
-5.95282e-22
-2.59391e-22
-1.11168e-22
-4.75153e-23
-2.00969e-23
-8.47954e-24
-3.58606e-24
-1.55022e-24
-6.93399e-25
-3.40863e-25
-1.38913e-25
-4.69854e-26
-8.68208e-27
0
0
0
0
0
0
0
0
0
0
0
0
0
0
0
0
0
0
0
0
0
0
0
0
0
0
-4.83685e-13
-6.97411e-12
-9.31811e-11
-9.10504e-10
-6.6856e-09
-3.81212e-08
-1.74204e-07
-6.56668e-07
-2.09361e-06
-5.7672e-06
-1.39878e-05
-3.04663e-05
-6.05991e-05
-0.000111931
-0.000195589
-0.000329641
-0.000546375
-0.00090854
-0.00154279
-0.00271165
-0.00496791
-0.00946919
-0.0185795
-0.0369046
-0.0731443
-0.143605
-0.278863
-0.527503
-1.01821
-1.95378
-3.47556
-1.84242
-0.875143
-0.40521
-0.180824
-0.0770397
-0.0310744
-0.0117925
-0.00428534
-0.00134106
-0.000216992
-1.76421e-05
-8.18184e-07
-2.29233e-08
-4.38232e-10
-7.25368e-12
-1.43874e-13
-4.65117e-15
-2.91221e-16
-3.51937e-17
-7.2331e-18
-2.15213e-18
-8.01792e-19
-3.37773e-19
-1.51498e-19
-6.97078e-20
-3.21175e-20
-1.48386e-20
-6.73163e-21
-3.04086e-21
-1.35312e-21
-5.95282e-22
-2.58196e-22
-1.11168e-22
-4.75153e-23
-2.01716e-23
-8.5169e-24
-3.60474e-24
-1.58291e-24
-7.26084e-25
-3.26855e-25
-1.2724e-25
-4.31915e-26
-8.31728e-27
0
0
0
0
0
0
0
0
0
0
0
0
0
0
0
0
0
0
0
0
0
0
0
0
0
0
-4.83828e-13
-6.97646e-12
-9.23747e-11
-9.03758e-10
-6.64656e-09
-3.79696e-08
-1.73867e-07
-6.5681e-07
-2.09866e-06
-5.79358e-06
-1.40813e-05
-3.07349e-05
-6.12975e-05
-0.000113587
-0.000199004
-0.000336119
-0.000558515
-0.000931412
-0.00158677
-0.00279869
-0.00514513
-0.00983583
-0.0193358
-0.0384399
-0.0761836
-0.149508
-0.289937
-0.548234
-1.05805
-2.02975
-3.49219
-1.76625
-0.837865
-0.387118
-0.172266
-0.073148
-0.0293869
-0.0111069
-0.00402971
-0.00122925
-0.000190168
-1.5014e-05
-6.8075e-07
-1.87827e-08
-3.57875e-10
-5.99792e-12
-1.22279e-13
-4.09742e-15
-2.65774e-16
-3.30438e-17
-6.93186e-18
-2.08515e-18
-7.82462e-19
-3.31698e-19
-1.49059e-19
-6.84858e-20
-3.18118e-20
-1.46092e-20
-6.69338e-21
-3.01217e-21
-1.33877e-21
-5.905e-22
-2.57e-22
-1.1057e-22
-4.72165e-23
-2.00969e-23
-8.47954e-24
-3.60474e-24
-1.58758e-24
-7.30754e-25
-3.23353e-25
-1.24322e-25
-4.21701e-26
-8.20785e-27
0
0
0
0
0
0
0
0
0
0
0
0
0
0
0
0
0
0
0
0
0
0
0
0
0
0
-4.83901e-13
-6.97769e-12
-9.21822e-11
-9.01374e-10
-6.63724e-09
-3.79644e-08
-1.74088e-07
-6.5862e-07
-2.10765e-06
-5.8278e-06
-1.4193e-05
-3.10535e-05
-6.20545e-05
-0.000115169
-0.000202121
-0.000342024
-0.000569535
-0.000952103
-0.00162648
-0.00287723
-0.00530506
-0.0101667
-0.0200189
-0.039824
-0.0789235
-0.154835
-0.299917
-0.566996
-1.09428
-2.09912
-3.47623
-1.70971
-0.810047
-0.373566
-0.165839
-0.0702178
-0.0281173
-0.0105921
-0.00383739
-0.00114405
-0.000170424
-1.31235e-05
-5.83351e-07
-1.58729e-08
-3.01277e-10
-5.09846e-12
-1.06322e-13
-3.67167e-15
-2.45392e-16
-3.126e-17
-6.66808e-18
-2.02774e-18
-7.65549e-19
-3.2562e-19
-1.4662e-19
-6.75694e-20
-3.13531e-20
-1.44562e-20
-6.6169e-21
-2.97392e-21
-1.32921e-21
-5.85719e-22
-2.5461e-22
-1.09972e-22
-4.69176e-23
-1.99475e-23
-8.44219e-24
-3.58606e-24
-1.58758e-24
-7.33088e-25
-3.21018e-25
-1.23154e-25
-4.18783e-26
-8.06193e-27
0
0
0
0
0
0
0
0
0
0
0
0
0
0
0
0
0
0
0
0
0
0
0
0
0
0
-4.83931e-13
-6.97821e-12
-9.21896e-11
-9.01839e-10
-6.64511e-09
-3.80406e-08
-1.74619e-07
-6.61461e-07
-2.11989e-06
-5.87193e-06
-1.43208e-05
-3.13682e-05
-6.27583e-05
-0.00011662
-0.000204944
-0.000347325
-0.00057937
-0.000970503
-0.00166173
-0.00294692
-0.00544702
-0.0104604
-0.0206255
-0.0410518
-0.0813543
-0.159564
-0.308766
-0.583685
-1.12659
-2.1612
-3.44128
-1.66795
-0.789384
-0.363454
-0.161026
-0.0680175
-0.0271622
-0.0102048
-0.00369221
-0.00107879
-0.000155672
-1.17355e-05
-5.12695e-07
-1.37769e-08
-2.60432e-10
-4.4399e-12
-9.43177e-14
-3.3398e-15
-2.28906e-16
-2.97693e-17
-6.44191e-18
-1.97509e-18
-7.51056e-19
-3.20761e-19
-1.4418e-19
-6.66531e-20
-3.08945e-20
-1.43033e-20
-6.54041e-21
-2.94524e-21
-1.31487e-21
-5.78547e-22
-2.52219e-22
-1.08777e-22
-4.64694e-23
-1.97233e-23
-8.36748e-24
-3.56738e-24
-1.58758e-24
-7.33088e-25
-3.18683e-25
-1.21987e-25
-4.12946e-26
-7.87953e-27
0
0
0
0
0
0
0
0
0
0
0
0
0
0
0
0
0
0
0
0
0
0
0
0
0
0
-4.83937e-13
-6.97834e-12
-9.24014e-11
-9.04017e-10
-6.66645e-09
-3.82036e-08
-1.75542e-07
-6.65572e-07
-2.13488e-06
-5.91753e-06
-1.44434e-05
-3.16632e-05
-6.34039e-05
-0.00011793
-0.00020746
-0.000352008
-0.000588002
-0.000986589
-0.00169248
-0.00300766
-0.00557069
-0.0107161
-0.0211532
-0.0421191
-0.0834659
-0.163671
-0.316434
-0.598171
-1.15467
-2.21522
-3.40004
-1.63655
-0.773782
-0.355794
-0.15737
-0.0663427
-0.0264342
-0.0099097
-0.00358108
-0.00102818
-0.000144455
-1.06949e-05
-4.60252e-07
-1.22307e-08
-2.30273e-10
-3.94813e-12
-8.51574e-14
-3.07929e-15
-2.15581e-16
-2.85168e-17
-6.25341e-18
-1.93202e-18
-7.3655e-19
-3.15899e-19
-1.42351e-19
-6.57366e-20
-3.05888e-20
-1.40739e-20
-6.4448e-21
-2.90699e-21
-1.29574e-21
-5.71375e-22
-2.49828e-22
-1.07582e-22
-4.60211e-23
-1.95739e-23
-8.29277e-24
-3.53003e-24
-1.58291e-24
-7.30754e-25
-3.17516e-25
-1.21403e-25
-4.08568e-26
-7.77009e-27
0
0
0
0
0
0
0
0
0
0
0
0
0
0
0
0
0
0
0
0
0
0
0
0
0
0
-4.8392e-13
-6.9781e-12
-9.26082e-11
-9.08112e-10
-6.69924e-09
-3.84038e-08
-1.76541e-07
-6.69707e-07
-2.14931e-06
-5.96087e-06
-1.45576e-05
-3.19328e-05
-6.39843e-05
-0.000119091
-0.000209666
-0.000356076
-0.000595454
-0.00100042
-0.00171886
-0.00305967
-0.00567651
-0.0109346
-0.0216024
-0.0430284
-0.0852625
-0.167163
-0.322934
-0.610457
-1.17848
-2.26101
-3.36029
-1.61227
-0.761701
-0.349856
-0.154534
-0.0650426
-0.0258688
-0.00968071
-0.0034946
-0.000988411
-0.000135793
-9.90123e-06
-4.20609e-07
-1.10687e-08
-2.07599e-10
-3.57504e-12
-7.80816e-14
-2.87316e-15
-2.04768e-16
-2.75035e-17
-6.08357e-18
-1.89372e-18
-7.26895e-19
-3.11035e-19
-1.40521e-19
-6.51258e-20
-3.02831e-20
-1.39209e-20
-6.36831e-21
-2.8783e-21
-1.28618e-21
-5.66593e-22
-2.46242e-22
-1.06386e-22
-4.55728e-23
-1.93498e-23
-8.21806e-24
-3.51135e-24
-1.57357e-24
-7.28419e-25
-3.16349e-25
-1.20819e-25
-4.07109e-26
-7.55122e-27
0
0
0
0
0
0
0
0
0
0
0
0
0
0
0
0
0
0
0
0
0
0
0
0
0
0
-4.83887e-13
-6.97762e-12
-9.32315e-11
-9.12566e-10
-6.73346e-09
-3.86098e-08
-1.77541e-07
-6.73729e-07
-2.163e-06
-6.00108e-06
-1.46616e-05
-3.21741e-05
-6.44962e-05
-0.000120103
-0.000211567
-0.000359554
-0.000601786
-0.00101212
-0.00174111
-0.00310347
-0.0057655
-0.0111181
-0.0219799
-0.0437895
-0.0867641
-0.170078
-0.328347
-0.620687
-1.19831
-2.29909
-3.32528
-1.59307
-0.75215
-0.345164
-0.152295
-0.0640166
-0.025423
-0.00950042
-0.00342635
-0.000956852
-0.000129029
-9.28816e-06
-3.90231e-07
-1.01831e-08
-1.90321e-10
-3.28871e-12
-7.25712e-14
-2.70954e-15
-1.9601e-16
-2.66366e-17
-5.95156e-18
-1.86503e-18
-7.14798e-19
-3.07389e-19
-1.39302e-19
-6.4515e-20
-2.98244e-20
-1.3768e-20
-6.31094e-21
-2.84962e-21
-1.27184e-21
-5.61812e-22
-2.43851e-22
-1.05191e-22
-4.51246e-23
-1.92004e-23
-8.14335e-24
-3.474e-24
-1.5689e-24
-7.26084e-25
-3.15181e-25
-1.20819e-25
-4.04191e-26
-7.44178e-27
0
0
0
0
0
0
0
0
0
0
0
0
0
0
0
0
0
0
0
0
0
0
0
0
0
0
-4.83846e-13
-6.97702e-12
-9.36432e-11
-9.17201e-10
-6.76757e-09
-3.88113e-08
-1.78499e-07
-6.77499e-07
-2.17558e-06
-6.03738e-06
-1.47539e-05
-3.23855e-05
-6.49389e-05
-0.000120968
-0.000213178
-0.000362479
-0.000607082
-0.00102186
-0.00175959
-0.00313979
-0.00583917
-0.0112698
-0.0222914
-0.0444168
-0.0880001
-0.172474
-0.332786
-0.629078
-1.21456
-2.33029
-3.29579
-1.57772
-0.744524
-0.341423
-0.150511
-0.0632005
-0.0250688
-0.00935748
-0.00337206
-0.000931739
-0.000123722
-8.81169e-06
-3.66787e-07
-9.50273e-09
-1.77054e-10
-3.0676e-12
-6.82646e-14
-2.57952e-15
-1.88921e-16
-2.59544e-17
-5.83833e-18
-1.83628e-18
-7.07554e-19
-3.0374e-19
-1.37472e-19
-6.3904e-20
-2.96715e-20
-1.36915e-20
-6.25357e-21
-2.82093e-21
-1.26227e-21
-5.5464e-22
-2.42656e-22
-1.04593e-22
-4.46763e-23
-1.90509e-23
-8.06864e-24
-3.45532e-24
-1.56423e-24
-7.2375e-25
-3.14014e-25
-1.20236e-25
-4.02732e-26
-7.33234e-27
0
0
0
0
0
0
0
0
0
0
0
0
0
0
0
0
0
0
0
0
0
0
0
0
0
0
-4.83804e-13
-6.97638e-12
-9.40542e-11
-9.21437e-10
-6.79999e-09
-3.89991e-08
-1.79377e-07
-6.80899e-07
-2.18676e-06
-6.06919e-06
-1.48338e-05
-3.25662e-05
-6.53134e-05
-0.000121693
-0.000214517
-0.000364894
-0.000611431
-0.00102984
-0.00177467
-0.00316938
-0.00589913
-0.0113931
-0.0225442
-0.0449253
-0.089001
-0.174414
-0.336371
-0.635854
-1.22769
-2.35546
-3.27163
-1.56548
-0.738448
-0.338445
-0.149093
-0.0625527
-0.0247881
-0.0092444
-0.00332899
-0.000911844
-0.000119572
-8.44204e-06
-3.48708e-07
-8.98013e-09
-1.66866e-10
-2.89696e-12
-6.49077e-14
-2.47683e-15
-1.83253e-16
-2.53822e-17
-5.74393e-18
-1.81232e-18
-7.00301e-19
-3.01309e-19
-1.36252e-19
-6.32929e-20
-2.93657e-20
-1.35385e-20
-6.19621e-21
-2.80181e-21
-1.25271e-21
-5.52249e-22
-2.40265e-22
-1.03996e-22
-4.43775e-23
-1.89015e-23
-8.03128e-24
-3.43664e-24
-1.55956e-24
-7.21415e-25
-3.14014e-25
-1.19652e-25
-4.02732e-26
-7.25938e-27
0
0
0
0
0
0
0
0
0
0
0
0
0
0
0
0
0
0
0
0
0
0
0
0
0
0
-4.83763e-13
-6.97577e-12
-9.44656e-11
-9.2548e-10
-6.82892e-09
-3.91653e-08
-1.80145e-07
-6.83842e-07
-2.19633e-06
-6.09611e-06
-1.49007e-05
-3.27161e-05
-6.56213e-05
-0.000122284
-0.000215602
-0.000366839
-0.00061492
-0.00103622
-0.00178671
-0.00319295
-0.00594682
-0.0114911
-0.0227454
-0.0453287
-0.0897943
-0.17595
-0.339206
-0.641213
-1.23806
-2.37534
-3.25238
-1.55585
-0.733674
-0.336109
-0.147982
-0.0620456
-0.0245685
-0.0091561
-0.00329528
-0.000896302
-0.000116374
-8.15942e-06
-3.34951e-07
-8.58351e-09
-1.59129e-10
-2.76671e-12
-6.23211e-14
-2.39677e-15
-1.78776e-16
-2.49206e-17
-5.6684e-18
-1.79315e-18
-6.93039e-19
-2.98877e-19
-1.35643e-19
-6.26818e-20
-2.92129e-20
-1.34621e-20
-6.15796e-21
-2.78268e-21
-1.24315e-21
-5.47468e-22
-2.3907e-22
-1.028e-22
-4.40787e-23
-1.87521e-23
-7.99393e-24
-3.41797e-24
-1.55489e-24
-7.1908e-25
-3.12847e-25
-1.19652e-25
-4.01272e-26
-7.18643e-27
0
0
0
0
0
0
0
0
0
0
0
0
0
0
0
0
0
0
0
0
0
0
0
0
0
0
-4.83727e-13
-7.20024e-12
-9.48779e-11
-9.28747e-10
-6.85349e-09
-3.93043e-08
-1.80782e-07
-6.86261e-07
-2.20412e-06
-6.11787e-06
-1.49543e-05
-3.28354e-05
-6.58647e-05
-0.000122748
-0.000216449
-0.000368352
-0.000617622
-0.00104114
-0.00179599
-0.00321111
-0.00598356
-0.0115665
-0.0229
-0.0456384
-0.0904029
-0.177128
-0.341376
-0.645315
-1.24601
-2.39055
-3.23757
-1.54849
-0.730031
-0.334327
-0.147136
-0.0616594
-0.0244015
-0.00908903
-0.0032696
-0.000884364
-0.000114043
-7.95254e-06
-3.24861e-07
-8.29216e-09
-1.53426e-10
-2.67009e-12
-6.03834e-14
-2.33611e-15
-1.75333e-16
-2.45697e-17
-5.61177e-18
-1.77878e-18
-6.90634e-19
-2.97663e-19
-1.35033e-19
-6.23763e-20
-2.906e-20
-1.33856e-20
-6.11972e-21
-2.76356e-21
-1.23359e-21
-5.45077e-22
-2.37875e-22
-1.028e-22
-4.39292e-23
-1.86774e-23
-7.91922e-24
-3.39929e-24
-1.55489e-24
-7.1908e-25
-3.12847e-25
-1.19068e-25
-3.99813e-26
-7.14995e-27
0
0
0
0
0
0
0
0
0
0
0
0
0
0
0
0
0
0
0
0
0
0
0
0
0
0
-4.83698e-13
-7.19979e-12
-9.50818e-11
-9.31439e-10
-6.87245e-09
-3.9412e-08
-1.81272e-07
-6.8811e-07
-2.21004e-06
-6.1343e-06
-1.49946e-05
-3.29244e-05
-6.60454e-05
-0.000123091
-0.000217072
-0.00036946
-0.000619598
-0.00104474
-0.00180276
-0.00322434
-0.00601028
-0.0116213
-0.0230121
-0.0458632
-0.0908444
-0.177982
-0.342949
-0.648289
-1.25177
-2.40158
-3.2268
-1.54317
-0.727395
-0.333039
-0.146524
-0.0613805
-0.0242809
-0.00904066
-0.00325105
-0.000875744
-0.000112401
-7.80749e-06
-3.17812e-07
-8.08918e-09
-1.49455e-10
-2.60252e-12
-5.90136e-14
-2.29245e-15
-1.72816e-16
-2.43206e-17
-5.56452e-18
-1.76921e-18
-6.85791e-19
-2.96448e-19
-1.34423e-19
-6.20708e-20
-2.89071e-20
-1.33856e-20
-6.10059e-21
-2.75399e-21
-1.2288e-21
-5.42687e-22
-2.36679e-22
-1.02203e-22
-4.36304e-23
-1.86027e-23
-7.91922e-24
-3.39929e-24
-1.55022e-24
-7.1908e-25
-3.11679e-25
-1.19068e-25
-3.99813e-26
-7.11347e-27
0
0
0
0
0
0
0
0
0
0
0
0
0
0
0
0
0
0
0
0
0
0
0
0
0
0
-4.83678e-13
-7.19948e-12
-9.52875e-11
-9.33166e-10
-6.88545e-09
-3.94848e-08
-1.81603e-07
-6.89354e-07
-2.21401e-06
-6.14527e-06
-1.50214e-05
-3.29834e-05
-6.61647e-05
-0.000123317
-0.000217482
-0.000370186
-0.000620889
-0.00104708
-0.00180717
-0.00323296
-0.00602769
-0.011657
-0.023085
-0.0460095
-0.0911317
-0.178537
-0.343971
-0.650223
-1.25551
-2.40875
-3.21979
-1.53971
-0.725681
-0.332202
-0.146126
-0.0611996
-0.0242027
-0.00900932
-0.00323901
-0.000870173
-0.00011135
-7.71533e-06
-3.13363e-07
-7.96185e-09
-1.46977e-10
-2.56049e-12
-5.81589e-14
-2.26483e-15
-1.71192e-16
-2.4145e-17
-5.5362e-18
-1.75961e-18
-6.83373e-19
-2.95231e-19
-1.33813e-19
-6.20709e-20
-2.87542e-20
-1.33091e-20
-6.08147e-21
-2.74443e-21
-1.2288e-21
-5.40296e-22
-2.35484e-22
-1.01605e-22
-4.36304e-23
-1.8528e-23
-7.88186e-24
-3.38061e-24
-1.54556e-24
-7.16746e-25
-3.11679e-25
-1.19068e-25
-3.98354e-26
-7.07699e-27
0
0
0
0
0
0
0
0
0
0
0
0
0
0
0
0
0
0
0
0
0
0
0
0
0
0
-4.83669e-13
-7.19933e-12
-9.52855e-11
-9.34129e-10
-6.89177e-09
-3.95204e-08
-1.81764e-07
-6.8996e-07
-2.21595e-06
-6.15061e-06
-1.50344e-05
-3.30121e-05
-6.62227e-05
-0.000123427
-0.00021768
-0.000370539
-0.000621516
-0.00104822
-0.00180931
-0.00323715
-0.00603616
-0.0116744
-0.0231206
-0.0460807
-0.0912716
-0.178808
-0.34447
-0.651165
-1.25734
-2.41224
-3.21636
-1.53802
-0.724846
-0.331794
-0.145933
-0.0611115
-0.0241648
-0.0089941
-0.00323317
-0.000867487
-0.000110847
-7.67159e-06
-3.11266e-07
-7.90226e-09
-1.45826e-10
-2.54111e-12
-5.77676e-14
-2.25217e-15
-1.70442e-16
-2.40619e-17
-5.51724e-18
-1.75964e-18
-6.83379e-19
-2.94012e-19
-1.33813e-19
-6.2071e-20
-2.87542e-20
-1.33091e-20
-6.08147e-21
-2.74443e-21
-1.22402e-21
-5.40296e-22
-2.35484e-22
-1.01605e-22
-4.3481e-23
-1.8528e-23
-7.88186e-24
-3.38061e-24
-1.54556e-24
-7.16746e-25
-3.11679e-25
-1.19068e-25
-3.98354e-26
-7.07699e-27
0
0
0
0
0
0
0
0
0
0
0
0
0
0
0
0
0
0
0
0
0
0
0
0
0
0
-4.83669e-13
-7.19933e-12
-9.52855e-11
-9.34129e-10
-6.89158e-09
-3.95202e-08
-1.81763e-07
-6.89959e-07
-2.21594e-06
-6.1506e-06
-1.50344e-05
-3.30121e-05
-6.62226e-05
-0.000123427
-0.00021768
-0.000370539
-0.000621516
-0.00104822
-0.00180931
-0.00323715
-0.00603616
-0.0116744
-0.0231206
-0.0460808
-0.0912717
-0.178808
-0.34447
-0.651166
-1.25734
-2.41224
-3.21636
-1.53802
-0.724845
-0.331793
-0.145933
-0.0611114
-0.0241647
-0.00899408
-0.00323316
-0.000867483
-0.000110847
-7.67153e-06
-3.11263e-07
-7.90218e-09
-1.45825e-10
-2.54108e-12
-5.77671e-14
-2.25217e-15
-1.70424e-16
-2.40619e-17
-5.51724e-18
-1.75964e-18
-6.83379e-19
-2.94012e-19
-1.33813e-19
-6.2071e-20
-2.87542e-20
-1.33091e-20
-6.08147e-21
-2.74443e-21
-1.22402e-21
-5.40296e-22
-2.35484e-22
-1.01605e-22
-4.3481e-23
-1.8528e-23
-7.88186e-24
-3.38061e-24
-1.54556e-24
-7.16746e-25
-3.11679e-25
-1.19068e-25
-3.98354e-26
-7.07699e-27
0
0
0
0
0
0
0
0
0
0
0
0
0
0
0
0
0
0
0
0
0
0
0
0
0
0
-4.83679e-13
-7.19948e-12
-9.52875e-11
-9.33167e-10
-6.88527e-09
-3.94847e-08
-1.81602e-07
-6.89351e-07
-2.21401e-06
-6.14525e-06
-1.50214e-05
-3.29834e-05
-6.61646e-05
-0.000123317
-0.000217481
-0.000370186
-0.000620889
-0.00104708
-0.00180717
-0.00323295
-0.00602769
-0.011657
-0.023085
-0.0460095
-0.0911318
-0.178538
-0.343972
-0.650224
-1.25552
-2.40876
-3.21977
-1.5397
-0.725678
-0.3322
-0.146125
-0.0611992
-0.0242026
-0.00900925
-0.00323898
-0.000870162
-0.000111348
-7.71515e-06
-3.13354e-07
-7.96162e-09
-1.46973e-10
-2.56041e-12
-5.81573e-14
-2.26476e-15
-1.71173e-16
-2.4145e-17
-5.5362e-18
-1.75961e-18
-6.83373e-19
-2.95231e-19
-1.33813e-19
-6.20709e-20
-2.87542e-20
-1.33091e-20
-6.08147e-21
-2.74443e-21
-1.2288e-21
-5.40296e-22
-2.35484e-22
-1.01605e-22
-4.36304e-23
-1.8528e-23
-7.88186e-24
-3.38061e-24
-1.54556e-24
-7.16746e-25
-3.11679e-25
-1.19068e-25
-3.98354e-26
-7.07699e-27
0
0
0
0
0
0
0
0
0
0
0
0
0
0
0
0
0
0
0
0
0
0
0
0
0
0
-4.83698e-13
-7.19979e-12
-9.50818e-11
-9.31439e-10
-6.87227e-09
-3.94116e-08
-1.8127e-07
-6.88105e-07
-2.21003e-06
-6.13427e-06
-1.49946e-05
-3.29243e-05
-6.60452e-05
-0.000123091
-0.000217072
-0.00036946
-0.000619597
-0.00104474
-0.00180276
-0.00322433
-0.00601028
-0.0116213
-0.0230121
-0.0458633
-0.0908447
-0.177982
-0.342951
-0.648292
-1.25177
-2.40159
-3.22678
-1.54316
-0.727389
-0.333036
-0.146522
-0.0613799
-0.0242806
-0.00904054
-0.003251
-0.000875724
-0.000112397
-7.80719e-06
-3.17798e-07
-8.08878e-09
-1.49447e-10
-2.60238e-12
-5.90107e-14
-2.29239e-15
-1.72816e-16
-2.43112e-17
-5.56452e-18
-1.76921e-18
-6.85791e-19
-2.96448e-19
-1.34423e-19
-6.20708e-20
-2.89071e-20
-1.33856e-20
-6.10059e-21
-2.75399e-21
-1.2288e-21
-5.42687e-22
-2.36679e-22
-1.02203e-22
-4.36304e-23
-1.86027e-23
-7.91922e-24
-3.39929e-24
-1.55022e-24
-7.1908e-25
-3.11679e-25
-1.19068e-25
-3.99813e-26
-7.11347e-27
0
0
0
0
0
0
0
0
0
0
0
0
0
0
0
0
0
0
0
0
0
0
0
0
0
0
-4.83727e-13
-7.20024e-12
-9.4878e-11
-9.28747e-10
-6.85331e-09
-3.93038e-08
-1.8078e-07
-6.86255e-07
-2.20411e-06
-6.11784e-06
-1.49543e-05
-3.28352e-05
-6.58645e-05
-0.000122748
-0.000216449
-0.000368351
-0.000617621
-0.00104114
-0.00179599
-0.00321111
-0.00598356
-0.0115665
-0.0229001
-0.0456385
-0.0904033
-0.177128
-0.341378
-0.64532
-1.24602
-2.39058
-3.23754
-1.54848
-0.730024
-0.334323
-0.147134
-0.0616585
-0.0244011
-0.00908887
-0.00326953
-0.000884337
-0.000114038
-7.95212e-06
-3.24841e-07
-8.29159e-09
-1.53415e-10
-2.6699e-12
-6.03793e-14
-2.33597e-15
-1.75333e-16
-2.45697e-17
-5.61177e-18
-1.77878e-18
-6.90634e-19
-2.97663e-19
-1.35033e-19
-6.23763e-20
-2.906e-20
-1.33856e-20
-6.11972e-21
-2.76356e-21
-1.23359e-21
-5.45077e-22
-2.37875e-22
-1.028e-22
-4.39292e-23
-1.86774e-23
-7.91922e-24
-3.39929e-24
-1.55489e-24
-7.1908e-25
-3.12847e-25
-1.19068e-25
-3.99813e-26
-7.14995e-27
0
0
0
0
0
0
0
0
0
0
0
0
0
0
0
0
0
0
0
0
0
0
0
0
0
0
-4.83763e-13
-6.97577e-12
-9.44656e-11
-9.25481e-10
-6.82874e-09
-3.91647e-08
-1.80142e-07
-6.83834e-07
-2.1963e-06
-6.09607e-06
-1.49006e-05
-3.27159e-05
-6.5621e-05
-0.000122284
-0.000215601
-0.000366839
-0.000614919
-0.00103622
-0.00178671
-0.00319296
-0.00594685
-0.0114912
-0.0227449
-0.0453289
-0.0897948
-0.175951
-0.339209
-0.641218
-1.23808
-2.37537
-3.25234
-1.55583
-0.733664
-0.336104
-0.14798
-0.0620444
-0.024568
-0.0091559
-0.0032952
-0.000896268
-0.000116367
-8.15885e-06
-3.34924e-07
-8.58274e-09
-1.59113e-10
-2.76645e-12
-6.23157e-14
-2.3966e-15
-1.78758e-16
-2.49206e-17
-5.6684e-18
-1.79315e-18
-6.93039e-19
-2.98877e-19
-1.35643e-19
-6.26818e-20
-2.92129e-20
-1.34621e-20
-6.15796e-21
-2.78268e-21
-1.24315e-21
-5.47468e-22
-2.3907e-22
-1.028e-22
-4.40787e-23
-1.87521e-23
-7.99393e-24
-3.41797e-24
-1.55489e-24
-7.1908e-25
-3.12847e-25
-1.19652e-25
-4.01272e-26
-7.18643e-27
0
0
0
0
0
0
0
0
0
0
0
0
0
0
0
0
0
0
0
0
0
0
0
0
0
0
-4.83804e-13
-6.97638e-12
-9.40543e-11
-9.21438e-10
-6.7998e-09
-3.89983e-08
-1.79374e-07
-6.8089e-07
-2.18674e-06
-6.06914e-06
-1.48337e-05
-3.2566e-05
-6.5313e-05
-0.000121692
-0.000214516
-0.000364893
-0.00061143
-0.00102984
-0.00177468
-0.00316938
-0.00589914
-0.0113932
-0.0225453
-0.0449255
-0.0890016
-0.174415
-0.336374
-0.635861
-1.2277
-2.35549
-3.27159
-1.56545
-0.738435
-0.338439
-0.14909
-0.0625513
-0.0247874
-0.00924415
-0.00332889
-0.000911802
-0.000119563
-8.44133e-06
-3.48673e-07
-8.97914e-09
-1.66847e-10
-2.89663e-12
-6.49007e-14
-2.47659e-15
-1.83235e-16
-2.53822e-17
-5.74393e-18
-1.81232e-18
-7.00301e-19
-3.01309e-19
-1.36252e-19
-6.32929e-20
-2.93657e-20
-1.35385e-20
-6.19621e-21
-2.80181e-21
-1.24793e-21
-5.52249e-22
-2.40265e-22
-1.03996e-22
-4.43775e-23
-1.89015e-23
-8.03128e-24
-3.43664e-24
-1.55956e-24
-7.21415e-25
-3.14014e-25
-1.19652e-25
-4.02732e-26
-7.25938e-27
0
0
0
0
0
0
0
0
0
0
0
0
0
0
0
0
0
0
0
0
0
0
0
0
0
0
-4.83847e-13
-6.97702e-12
-9.36432e-11
-9.17005e-10
-6.76739e-09
-3.88105e-08
-1.78496e-07
-6.77488e-07
-2.17555e-06
-6.03732e-06
-1.47538e-05
-3.23852e-05
-6.49385e-05
-0.000120967
-0.000213177
-0.000362478
-0.00060708
-0.00102186
-0.00175959
-0.00313979
-0.00583917
-0.0112698
-0.0222914
-0.044417
-0.0880008
-0.172476
-0.33279
-0.629086
-1.21458
-2.33033
-3.29573
-1.57769
-0.744509
-0.341415
-0.150507
-0.0631988
-0.025068
-0.00935717
-0.00337194
-0.000931688
-0.000123712
-8.81081e-06
-3.66744e-07
-9.50148e-09
-1.7703e-10
-3.06717e-12
-6.82559e-14
-2.57925e-15
-1.88903e-16
-2.59544e-17
-5.83833e-18
-1.83628e-18
-7.07554e-19
-3.0374e-19
-1.37472e-19
-6.3904e-20
-2.96715e-20
-1.36915e-20
-6.25357e-21
-2.82093e-21
-1.26227e-21
-5.5464e-22
-2.42656e-22
-1.04593e-22
-4.46763e-23
-1.90509e-23
-8.06864e-24
-3.45532e-24
-1.56423e-24
-7.2375e-25
-3.14014e-25
-1.20236e-25
-4.02732e-26
-7.33234e-27
0
0
0
0
0
0
0
0
0
0
0
0
0
0
0
0
0
0
0
0
0
0
0
0
0
0
-4.83887e-13
-6.97763e-12
-9.32316e-11
-9.12567e-10
-6.73328e-09
-3.86089e-08
-1.77537e-07
-6.73717e-07
-2.16297e-06
-6.00101e-06
-1.46614e-05
-3.21738e-05
-6.44957e-05
-0.000120102
-0.000211566
-0.000359552
-0.000601784
-0.00101212
-0.00174111
-0.00310347
-0.0057655
-0.0111181
-0.0219815
-0.0437897
-0.0867648
-0.170079
-0.328351
-0.620696
-1.19833
-2.29914
-3.32522
-1.59304
-0.752133
-0.345155
-0.15229
-0.0640146
-0.0254221
-0.00950006
-0.00342621
-0.000956793
-0.000129017
-9.28709e-06
-3.90179e-07
-1.01815e-08
-1.9029e-10
-3.28818e-12
-7.25604e-14
-2.7092e-15
-1.95993e-16
-2.66367e-17
-5.95156e-18
-1.86503e-18
-7.14798e-19
-3.07389e-19
-1.39302e-19
-6.42092e-20
-2.98244e-20
-1.3768e-20
-6.31094e-21
-2.84962e-21
-1.27184e-21
-5.61812e-22
-2.43851e-22
-1.05191e-22
-4.51246e-23
-1.92004e-23
-8.14335e-24
-3.474e-24
-1.5689e-24
-7.26084e-25
-3.15181e-25
-1.20819e-25
-4.04191e-26
-7.44178e-27
0
0
0
0
0
0
0
0
0
0
0
0
0
0
0
0
0
0
0
0
0
0
0
0
0
0
-4.8392e-13
-6.97811e-12
-9.26083e-11
-9.08113e-10
-6.69906e-09
-3.84028e-08
-1.76536e-07
-6.69693e-07
-2.14928e-06
-5.96079e-06
-1.45575e-05
-3.19325e-05
-6.39837e-05
-0.00011909
-0.000209665
-0.000356074
-0.000595451
-0.00100041
-0.00171885
-0.00305966
-0.0056765
-0.0109346
-0.0216027
-0.0430286
-0.0852632
-0.167165
-0.322939
-0.610467
-1.17851
-2.26106
-3.36022
-1.61224
-0.761682
-0.349846
-0.154529
-0.0650404
-0.0258678
-0.0096803
-0.00349444
-0.000988343
-0.000135779
-9.89996e-06
-4.20545e-07
-1.10669e-08
-2.07561e-10
-3.5744e-12
-7.80685e-14
-2.87276e-15
-2.0475e-16
-2.74848e-17
-6.08358e-18
-1.89372e-18
-7.26895e-19
-3.11035e-19
-1.40521e-19
-6.51258e-20
-3.02831e-20
-1.39209e-20
-6.36831e-21
-2.8783e-21
-1.28618e-21
-5.66593e-22
-2.46242e-22
-1.06386e-22
-4.55728e-23
-1.93498e-23
-8.21806e-24
-3.51135e-24
-1.57357e-24
-7.28419e-25
-3.16349e-25
-1.20819e-25
-4.07109e-26
-7.55122e-27
0
0
0
0
0
0
0
0
0
0
0
0
0
0
0
0
0
0
0
0
0
0
0
0
0
0
-4.83937e-13
-6.97834e-12
-9.24015e-11
-9.04018e-10
-6.66608e-09
-3.82024e-08
-1.75537e-07
-6.65556e-07
-2.13483e-06
-5.91743e-06
-1.44432e-05
-3.16628e-05
-6.34032e-05
-0.000117929
-0.000207459
-0.000352005
-0.000587997
-0.000986582
-0.00169248
-0.00300765
-0.00557069
-0.0107161
-0.021153
-0.0421194
-0.0834666
-0.163673
-0.316439
-0.598182
-1.15469
-2.21527
-3.39997
-1.63651
-0.77376
-0.355783
-0.157365
-0.0663402
-0.026433
-0.00990924
-0.0035809
-0.0010281
-0.000144438
-1.06934e-05
-4.60175e-07
-1.22284e-08
-2.30226e-10
-3.94733e-12
-8.51414e-14
-3.07881e-15
-2.15563e-16
-2.85168e-17
-6.24387e-18
-1.93202e-18
-7.3655e-19
-3.15899e-19
-1.42351e-19
-6.57366e-20
-3.05888e-20
-1.40739e-20
-6.4448e-21
-2.90699e-21
-1.29574e-21
-5.71375e-22
-2.49828e-22
-1.07582e-22
-4.60211e-23
-1.95739e-23
-8.29277e-24
-3.53003e-24
-1.58291e-24
-7.30754e-25
-3.17516e-25
-1.21403e-25
-4.08568e-26
-7.77009e-27
0
0
0
0
0
0
0
0
0
0
0
0
0
0
0
0
0
0
0
0
0
0
0
0
0
0
-4.83931e-13
-6.97822e-12
-9.21897e-11
-9.0184e-10
-6.64494e-09
-3.80394e-08
-1.74614e-07
-6.61444e-07
-2.11984e-06
-5.87181e-06
-1.43206e-05
-3.13678e-05
-6.27575e-05
-0.000116619
-0.000204942
-0.000347322
-0.000579364
-0.000970493
-0.00166172
-0.0029469
-0.00544699
-0.0104604
-0.0206254
-0.0410519
-0.0813548
-0.159566
-0.30877
-0.583696
-1.12661
-2.16126
-3.44121
-1.6679
-0.789358
-0.363441
-0.16102
-0.0680146
-0.0271609
-0.0102043
-0.00369201
-0.0010787
-0.000155653
-1.17337e-05
-5.12601e-07
-1.3774e-08
-2.60374e-10
-4.43891e-12
-9.42982e-14
-3.33922e-15
-2.28888e-16
-2.97693e-17
-6.44192e-18
-1.97509e-18
-7.51056e-19
-3.20761e-19
-1.4418e-19