/*--------------------------------*- C++ -*----------------------------------*\
  =========                 |
  \\      /  F ield         | OpenFOAM: The Open Source CFD Toolbox
   \\    /   O peration     | Website:  https://openfoam.org
    \\  /    A nd           | Version:  10
     \\/     M anipulation  |
\*---------------------------------------------------------------------------*/
FoamFile
{
    format      ascii;
    class       volScalarField;
    location    "1";
    object      RR.H2O;
}
// * * * * * * * * * * * * * * * * * * * * * * * * * * * * * * * * * * * * * //

dimensions      [1 -3 -1 0 0 0 0];

internalField   nonuniform List<scalar> 
4000
(
0
0
0
0
0
0
0
0
0
0
0
0
0
0
0
0
0
0
0
0
0
0
0
0
0
4.44586e-14
1.15487e-12
2.14663e-11
2.84806e-10
2.72873e-09
1.94682e-08
1.07295e-07
4.73719e-07
1.72606e-06
5.30541e-06
1.40832e-05
3.29519e-05
6.93602e-05
0.000133574
0.00023934
0.00040616
0.000665171
0.00107187
0.00173193
0.0028542
0.00486257
0.0086322
0.0159991
0.0307331
0.060329
0.119112
0.234
0.455709
0.869005
1.64883
3.18357
6.09156
5.96259
2.86267
1.35104
0.618605
0.272041
0.113884
0.0450142
0.016771
0.00603219
0.0015048
0.000171174
1.01163e-05
3.32155e-07
6.53093e-09
9.34807e-11
1.36255e-12
3.06334e-14
1.16544e-15
0
0
0
0
0
0
0
0
0
0
0
0
0
0
0
0
0
0
0
0
0
0
0
0
0
0
0
0
0
0
0
0
0
0
0
0
0
0
0
0
0
0
0
0
0
0
0
0
0
0
4.04986e-14
1.0451e-12
1.93008e-11
2.57196e-10
2.48896e-09
1.79893e-08
1.00643e-07
4.4961e-07
1.64603e-06
5.09917e-06
1.36543e-05
3.22206e-05
6.83562e-05
0.000132581
0.000239069
0.000407975
0.000671489
0.00108705
0.00176434
0.00292075
0.00499569
0.00890586
0.0165752
0.031956
0.0628948
0.124379
0.24462
0.476899
0.908402
1.72523
3.33173
6.36355
5.71569
2.73925
1.2891
0.588016
0.25738
0.107139
0.0420719
0.0155869
0.00554469
0.00128503
0.000135495
7.5327e-06
2.35877e-07
4.53756e-09
6.61434e-11
1.02507e-12
2.41711e-14
1.16786e-15
0
0
0
0
0
0
0
0
0
0
0
0
0
0
0
0
0
0
0
0
0
0
0
0
0
0
0
0
0
0
0
0
0
0
0
0
0
0
0
0
0
0
0
0
0
0
0
0
0
0
4.05492e-14
9.79068e-13
1.80091e-11
2.39544e-10
2.32504e-09
1.69307e-08
9.52724e-08
4.26512e-07
1.57545e-06
4.92302e-06
1.3295e-05
3.16292e-05
6.7621e-05
0.000132113
0.000239846
0.000411877
0.000681889
0.00111007
0.00181126
0.00301252
0.00518159
0.00930375
0.0174148
0.0337144
0.0665031
0.131588
0.258637
0.503585
0.955587
1.84705
3.55207
6.74818
5.34395
2.55658
1.19897
0.544285
0.236813
0.097874
0.0381244
0.0140401
0.0049038
0.00104279
0.000102512
5.43761e-06
1.65782e-07
3.19667e-09
4.84042e-11
8.03793e-13
1.98454e-14
1.16992e-15
0
0
0
0
0
0
0
0
0
0
0
0
0
0
0
0
0
0
0
0
0
0
0
0
0
0
0
0
0
0
0
0
0
0
0
0
0
0
0
0
0
0
0
0
0
0
0
0
0
0
3.65305e-14
9.35076e-13
1.711e-11
2.27945e-10
2.22171e-09
1.61711e-08
9.09534e-08
4.10253e-07
1.52674e-06
4.80577e-06
1.3071e-05
3.13094e-05
6.73754e-05
0.00013246
0.000241912
0.000417791
0.000695379
0.00113752
0.00186455
0.00312223
0.00541315
0.00977898
0.0184095
0.0358016
0.0708182
0.140292
0.27584
0.53714
1.01894
1.96824
3.78249
7.12737
4.97351
2.37425
1.10922
0.500976
0.216611
0.0888722
0.0343421
0.0125844
0.00428767
0.000839001
7.75101e-05
3.93724e-06
1.16767e-07
2.24214e-09
3.48575e-11
6.10876e-13
1.77156e-14
1.17283e-15
0
0
0
0
0
0
0
0
0
0
0
0
0
0
0
0
0
0
0
0
0
0
0
0
0
0
0
0
0
0
0
0
0
0
0
0
0
0
0
0
0
0
0
0
0
0
0
0
0
0
3.65589e-14
8.98229e-13
1.65039e-11
2.19548e-10
2.13074e-09
1.55525e-08
8.8101e-08
3.99854e-07
1.49669e-06
4.73773e-06
1.29572e-05
3.12046e-05
6.75021e-05
0.000133388
0.000244811
0.000424777
0.000710113
0.00116711
0.00192591
0.00324322
0.00565048
0.0102621
0.0194132
0.0378906
0.0750935
0.148827
0.292513
0.56924
1.07862
2.0833
4.00155
7.44511
4.64174
2.21153
1.02959
0.462839
0.19898
0.0810956
0.0311133
0.0113596
0.00376075
0.000683959
6.00509e-05
2.94528e-06
8.55358e-08
1.64252e-09
2.62209e-11
4.82787e-13
1.33346e-14
1.1753e-15
0
0
0
0
0
0
0
0
0
0
0
0
0
0
0
0
0
0
0
0
0
0
0
0
0
0
0
0
0
0
0
0
0
0
0
0
0
0
0
0
0
0
0
0
0
0
0
0
0
0
3.65755e-14
8.83681e-13
1.60745e-11
2.13237e-10
2.07642e-09
1.52097e-08
8.64867e-08
3.9408e-07
1.48105e-06
4.70749e-06
1.29277e-05
3.12609e-05
6.78934e-05
0.000134676
0.000248069
0.000431947
0.000725021
0.00119787
0.0019849
0.0033576
0.00587729
0.0107239
0.0203692
0.0398682
0.0791088
0.156784
0.307945
0.598739
1.13318
2.1891
4.20278
7.6749
4.36236
2.07499
0.963155
0.431245
0.184492
0.074765
0.0285125
0.0103821
0.0033397
0.000570146
4.8003e-05
2.28471e-06
6.51028e-08
1.24765e-09
2.03196e-11
3.90253e-13
1.11501e-14
1.17776e-15
0
0
0
0
0
0
0
0
0
0
0
0
0
0
0
0
0
0
0
0
0
0
0
0
0
0
0
0
0
0
0
0
0
0
0
0
0
0
0
0
0
0
0
0
0
0
0
0
0
0
3.65943e-14
8.61564e-13
1.5741e-11
2.09415e-10
2.04453e-09
1.50153e-08
8.56169e-08
3.91245e-07
1.47481e-06
4.70205e-06
1.29526e-05
3.14152e-05
6.84245e-05
0.0001361
0.000251386
0.000439274
0.000740342
0.00122711
0.00204049
0.00346496
0.00609011
0.0111575
0.0212669
0.0417279
0.0828841
0.164275
0.322522
0.6263
1.18472
2.2868
4.38801
7.80578
4.13789
1.96549
0.910064
0.406113
0.173024
0.0697903
0.0264853
0.00962446
0.00301189
0.000487342
3.96225e-05
1.83756e-06
5.14836e-08
9.84226e-10
1.62927e-11
3.2353e-13
1.11833e-14
1.17994e-15
0
0
0
0
0
0
0
0
0
0
0
0
0
0
0
0
0
0
0
0
0
0
0
0
0
0
0
0
0
0
0
0
0
0
0
0
0
0
0
0
0
0
0
0
0
0
0
0
0
0
3.66029e-14
8.54259e-13
1.55986e-11
2.07627e-10
2.02941e-09
1.49278e-08
8.52763e-08
3.90488e-07
1.47513e-06
4.7134e-06
1.30118e-05
3.16253e-05
6.90276e-05
0.000137668
0.000255106
0.000446944
0.000754892
0.00125437
0.00209186
0.00356374
0.00628558
0.0115555
0.0220903
0.0434263
0.0863323
0.171101
0.335782
0.651172
1.23128
2.37629
4.55863
7.84314
3.96682
1.88176
0.86943
0.386894
0.164284
0.0660006
0.0249457
0.00905035
0.00276079
0.000427099
3.372e-05
1.5289e-06
4.21841e-08
8.03753e-10
1.34733e-11
2.74805e-13
8.97023e-15
1.18191e-15
0
0
0
0
0
0
0
0
0
0
0
0
0
0
0
0
0
0
0
0
0
0
0
0
0
0
0
0
0
0
0
0
0
0
0
0
0
0
0
0
0
0
0
0
0
0
0
0
0
0
3.66071e-14
8.54387e-13
1.5538e-11
2.06937e-10
2.02429e-09
1.49065e-08
8.52645e-08
3.90984e-07
1.4792e-06
4.73359e-06
1.30887e-05
3.18761e-05
6.97433e-05
0.000139369
0.000258658
0.000453944
0.000768153
0.00127912
0.00213833
0.00365292
0.00646197
0.0119147
0.0228334
0.0449606
0.0894409
0.177255
0.347744
0.673585
1.27342
2.45764
4.71442
7.80728
3.83984
1.81929
0.838995
0.372459
0.157703
0.0631492
0.0237893
0.00861841
0.00256943
0.000382757
2.94741e-05
1.31015e-06
3.5649e-08
6.76641e-10
1.1452e-11
2.38114e-13
7.86692e-15
0
0
0
0
0
0
0
0
0
0
0
0
0
0
0
0
0
0
0
0
0
0
0
0
0
0
0
0
0
0
0
0
0
0
0
0
0
0
0
0
0
0
0
0
0
0
0
0
0
0
0
3.66086e-14
8.5444e-13
1.55321e-11
2.06921e-10
2.02528e-09
1.49245e-08
8.54357e-08
3.92178e-07
1.48558e-06
4.76107e-06
1.31878e-05
3.21632e-05
7.04501e-05
0.000140949
0.000261917
0.000460284
0.00078006
0.00130121
0.00217966
0.00373209
0.0066185
0.0122335
0.023493
0.0463229
0.0921985
0.182714
0.358365
0.693458
1.3109
2.53021
4.85386
7.72878
3.74606
1.77288
0.816283
0.361649
0.152761
0.0610041
0.0229196
0.00829235
0.00242286
0.000349625
2.63568e-05
1.15146e-06
3.09415e-08
5.84906e-10
9.97061e-12
2.11558e-13
7.88251e-15
0
0
0
0
0
0
0
0
0
0
0
0
0
0
0
0
0
0
0
0
0
0
0
0
0
0
0
0
0
0
0
0
0
0
0
0
0
0
0
0
0
0
0
0
0
0
0
0
0
0
0
3.66087e-14
8.54451e-13
1.55606e-11
2.07306e-10
2.03014e-09
1.49722e-08
8.5802e-08
3.94249e-07
1.49481e-06
4.79473e-06
1.32902e-05
3.24386e-05
7.11125e-05
0.000142399
0.00026486
0.000465936
0.000790576
0.0013206
0.00221578
0.00380116
0.00675491
0.0125112
0.0240673
0.047508
0.0945955
0.187456
0.36759
0.710681
1.34344
2.59327
4.97517
7.63615
3.67555
1.73784
0.799079
0.353439
0.149
0.059369
0.0222566
0.00804276
0.0023092
0.000324432
2.40198e-05
1.03368e-06
2.74691e-08
5.17172e-10
8.86701e-12
1.91073e-13
6.76794e-15
0
0
0
0
0
0
0
0
0
0
0
0
0
0
0
0
0
0
0
0
0
0
0
0
0
0
0
0
0
0
0
0
0
0
0
0
0
0
0
0
0
0
0
0
0
0
0
0
0
0
0
3.66073e-14
8.5442e-13
1.56233e-11
2.08198e-10
2.03944e-09
1.50458e-08
8.62515e-08
3.96493e-07
1.5041e-06
4.82715e-06
1.33876e-05
3.26951e-05
7.17181e-05
0.000143703
0.000267468
0.00047089
0.000799713
0.00133733
0.00224684
0.00386039
0.00687173
0.0127489
0.0245581
0.048517
0.0966376
0.191491
0.375431
0.72528
1.37103
2.64676
5.07802
7.54688
3.62101
1.71071
0.785743
0.347069
0.14608
0.0580992
0.0217423
0.00784853
0.00221988
0.000304977
2.22372e-05
9.44647e-07
2.48594e-08
4.66247e-10
8.02848e-12
1.74633e-13
6.77777e-15
0
0
0
0
0
0
0
0
0
0
0
0
0
0
0
0
0
0
0
0
0
0
0
0
0
0
0
0
0
0
0
0
0
0
0
0
0
0
0
0
0
0
0
0
0
0
0
0
0
0
0
3.66048e-14
8.61923e-13
1.56926e-11
2.09187e-10
2.04943e-09
1.51226e-08
8.67141e-08
3.98741e-07
1.51313e-06
4.8579e-06
1.34779e-05
3.29285e-05
7.226e-05
0.000144852
0.000269739
0.00047516
0.000807524
0.00135155
0.00227312
0.00391036
0.00697011
0.0129488
0.0249703
0.0493648
0.0983471
0.194864
0.381978
0.737436
1.394
2.69128
5.16354
7.46826
3.57788
1.68926
0.775206
0.342039
0.143776
0.0570979
0.0213374
0.00769526
0.002149
0.000289786
2.08603e-05
8.76422e-07
2.28702e-08
4.27441e-10
7.38591e-12
1.6229e-13
5.6551e-15
0
0
0
0
0
0
0
0
0
0
0
0
0
0
0
0
0
0
0
0
0
0
0
0
0
0
0
0
0
0
0
0
0
0
0
0
0
0
0
0
0
0
0
0
0
0
0
0
0
0
0
3.66019e-14
8.61851e-13
1.57757e-11
2.10218e-10
2.05961e-09
1.51994e-08
8.71667e-08
4.00892e-07
1.5216e-06
4.88615e-06
1.35594e-05
3.31359e-05
7.27347e-05
0.000145847
0.000271682
0.000478778
0.000814094
0.00136345
0.00229501
0.00395187
0.00705167
0.0131142
0.025311
0.0500643
0.0997558
0.19764
0.387361
0.747406
1.41285
2.72779
5.23361
7.40202
3.54341
1.67213
0.766803
0.338033
0.141943
0.0563024
0.0210164
0.00757333
0.0020926
0.000277868
1.97902e-05
8.23769e-07
2.13422e-08
3.9765e-10
6.89181e-12
1.54083e-13
5.66093e-15
0
0
0
0
0
0
0
0
0
0
0
0
0
0
0
0
0
0
0
0
0
0
0
0
0
0
0
0
0
0
0
0
0
0
0
0
0
0
0
0
0
0
0
0
0
0
0
0
0
0
0
3.65989e-14
8.69335e-13
1.58445e-11
2.11215e-10
2.06941e-09
1.52721e-08
8.75882e-08
4.02862e-07
1.52924e-06
4.91126e-06
1.36308e-05
3.33153e-05
7.31405e-05
0.000146688
0.00027331
0.000481785
0.000819517
0.00137322
0.00231292
0.00398575
0.00711813
0.0132489
0.0255879
0.0506322
0.100898
0.199888
0.391717
0.755458
1.42807
2.75727
5.29013
7.34778
3.51591
1.65848
0.760116
0.33485
0.140488
0.0556719
0.0207624
0.0074766
0.00204792
0.000268547
1.896e-05
7.83164e-07
2.01685e-08
3.74764e-10
6.50546e-12
1.45813e-13
5.66576e-15
0
0
0
0
0
0
0
0
0
0
0
0
0
0
0
0
0
0
0
0
0
0
0
0
0
0
0
0
0
0
0
0
0
0
0
0
0
0
0
0
0
0
0
0
0
0
0
0
0
0
0
3.6596e-14
8.69262e-13
1.59205e-11
2.12134e-10
2.07829e-09
1.53372e-08
8.79615e-08
4.04588e-07
1.53584e-06
4.93274e-06
1.36913e-05
3.34655e-05
7.34771e-05
0.000147379
0.000274638
0.000484222
0.000823886
0.00138105
0.00232724
0.00401278
0.00717106
0.013356
0.0258079
0.051084
0.101804
0.20167
0.395167
0.761825
1.4401
2.78057
5.33478
7.30454
3.49428
1.64776
0.754869
0.332354
0.139349
0.0551788
0.0205641
0.00740088
0.00201301
0.000261364
1.83253e-05
7.52268e-07
1.92777e-08
3.57389e-10
6.21252e-12
1.39608e-13
5.66966e-15
0
0
0
0
0
0
0
0
0
0
0
0
0
0
0
0
0
0
0
0
0
0
0
0
0
0
0
0
0
0
0
0
0
0
0
0
0
0
0
0
0
0
0
0
0
0
0
0
0
0
0
3.65934e-14
8.76755e-13
1.59755e-11
2.12918e-10
2.08584e-09
1.53921e-08
8.82738e-08
4.06019e-07
1.54128e-06
4.95025e-06
1.37402e-05
3.3586e-05
7.37451e-05
0.000147926
0.000275681
0.000486124
0.000827283
0.00138712
0.00233831
0.00403363
0.00721185
0.0134385
0.0259772
0.0514312
0.102499
0.203036
0.397812
0.766699
1.44932
2.79842
5.36896
7.27128
3.47777
1.63958
0.750868
0.330453
0.138482
0.0548037
0.0204134
0.00734321
0.0019862
0.00025613
1.78607e-05
7.29606e-07
1.86234e-08
3.44583e-10
5.99829e-12
1.35478e-13
5.6727e-15
0
0
0
0
0
0
0
0
0
0
0
0
0
0
0
0
0
0
0
0
0
0
0
0
0
0
0
0
0
0
0
0
0
0
0
0
0
0
0
0
0
0
0
0
0
0
0
0
0
0
0
3.65914e-14
8.76703e-13
1.60238e-11
2.13534e-10
2.09175e-09
1.54348e-08
8.85154e-08
4.07119e-07
1.54543e-06
4.96355e-06
1.37771e-05
3.36765e-05
7.39451e-05
0.000148332
0.000276452
0.000487524
0.000829773
0.00139156
0.00234638
0.00404882
0.00724155
0.0134985
0.0261003
0.0516829
0.103004
0.204028
0.39973
0.770231
1.456
2.81135
5.39372
7.2471
3.46581
1.63366
0.747974
0.329078
0.137855
0.054533
0.0203048
0.00730154
0.00196684
0.000252442
1.75349e-05
7.13775e-07
1.81675e-08
3.35661e-10
5.84395e-12
1.33434e-13
5.67493e-15
0
0
0
0
0
0
0
0
0
0
0
0
0
0
0
0
0
0
0
0
0
0
0
0
0
0
0
0
0
0
0
0
0
0
0
0
0
0
0
0
0
0
0
0
0
0
0
0
0
0
0
3.659e-14
8.76667e-13
1.60582e-11
2.13951e-10
2.09577e-09
1.54639e-08
8.86792e-08
4.07862e-07
1.54822e-06
4.97246e-06
1.38017e-05
3.37366e-05
7.40776e-05
0.0001486
0.000276959
0.000488443
0.000831404
0.00139446
0.00235165
0.00405873
0.00726091
0.0135376
0.0261805
0.0518468
0.103333
0.204673
0.400978
0.772527
1.46034
2.81976
5.40982
7.23133
3.45803
1.62981
0.746094
0.328186
0.137449
0.0543574
0.0202344
0.00727451
0.00195433
0.000250081
1.73279e-05
7.03783e-07
1.78816e-08
3.30095e-10
5.74983e-12
1.31361e-13
4.5411e-15
0
0
0
0
0
0
0
0
0
0
0
0
0
0
0
0
0
0
0
0
0
0
0
0
0
0
0
0
0
0
0
0
0
0
0
0
0
0
0
0
0
0
0
0
0
0
0
0
0
0
0
3.65893e-14
8.84207e-13
1.60719e-11
2.14156e-10
2.09772e-09
1.54781e-08
8.8759e-08
4.08224e-07
1.54958e-06
4.9768e-06
1.38137e-05
3.37659e-05
7.41421e-05
0.00014873
0.000277205
0.000488889
0.000832195
0.00139587
0.00235421
0.00406355
0.00727032
0.0135566
0.0262195
0.0519266
0.103493
0.204987
0.401586
0.773646
1.46245
2.82386
5.41766
7.22364
3.45424
1.62794
0.745177
0.327751
0.137251
0.0542721
0.0202002
0.00726138
0.00194829
0.000248953
1.72297e-05
6.99073e-07
1.77477e-08
3.2751e-10
5.70846e-12
1.29263e-13
4.54163e-15
0
0
0
0
0
0
0
0
0
0
0
0
0
0
0
0
0
0
0
0
0
0
0
0
0
0
0
0
0
0
0
0
0
0
0
0
0
0
0
0
0
0
0
0
0
0
0
0
0
0
0
3.65893e-14
8.84207e-13
1.60719e-11
2.14156e-10
2.09772e-09
1.5478e-08
8.87588e-08
4.08224e-07
1.54958e-06
4.9768e-06
1.38137e-05
3.37659e-05
7.4142e-05
0.00014873
0.000277205
0.000488889
0.000832195
0.00139587
0.00235421
0.00406355
0.00727032
0.0135566
0.0262195
0.0519266
0.103493
0.204987
0.401586
0.773647
1.46246
2.82386
5.41767
7.22363
3.45424
1.62793
0.745176
0.327751
0.137251
0.0542719
0.0202002
0.00726136
0.00194828
0.000248951
1.72295e-05
6.99067e-07
1.77476e-08
3.27506e-10
5.70846e-12
1.29263e-13
4.54163e-15
0
0
0
0
0
0
0
0
0
0
0
0
0
0
0
0
0
0
0
0
0
0
0
0
0
0
0
0
0
0
0
0
0
0
0
0
0
0
0
0
0
0
0
0
0
0
0
0
0
0
0
3.659e-14
8.76667e-13
1.60582e-11
2.13951e-10
2.09574e-09
1.54638e-08
8.86787e-08
4.0786e-07
1.54822e-06
4.97244e-06
1.38017e-05
3.37365e-05
7.40775e-05
0.000148599
0.000276959
0.000488442
0.000831403
0.00139446
0.00235165
0.00405873
0.00726091
0.0135376
0.0261805
0.0518468
0.103333
0.204673
0.400978
0.772529
1.46034
2.81977
5.40984
7.23131
3.45802
1.6298
0.74609
0.328184
0.137448
0.054357
0.0202343
0.00727444
0.0019543
0.000250076
1.73275e-05
7.03764e-07
1.7881e-08
3.30085e-10
5.74984e-12
1.31361e-13
4.5411e-15
0
0
0
0
0
0
0
0
0
0
0
0
0
0
0
0
0
0
0
0
0
0
0
0
0
0
0
0
0
0
0
0
0
0
0
0
0
0
0
0
0
0
0
0
0
0
0
0
0
0
0
3.65914e-14
8.76703e-13
1.60238e-11
2.13527e-10
2.09171e-09
1.54347e-08
8.85145e-08
4.07116e-07
1.54542e-06
4.96352e-06
1.3777e-05
3.36763e-05
7.39449e-05
0.000148331
0.000276451
0.000487523
0.000829772
0.00139156
0.00234638
0.00404882
0.00724155
0.0134985
0.0261003
0.051683
0.103005
0.204028
0.399731
0.770234
1.456
2.81137
5.39375
7.24705
3.46579
1.63365
0.747967
0.329075
0.137854
0.0545323
0.0203045
0.00730144
0.00196679
0.000252434
1.75342e-05
7.13743e-07
1.81666e-08
3.35644e-10
5.84396e-12
1.33434e-13
5.67494e-15
0
0
0
0
0
0
0
0
0
0
0
0
0
0
0
0
0
0
0
0
0
0
0
0
0
0
0
0
0
0
0
0
0
0
0
0
0
0
0
0
0
0
0
0
0
0
0
0
0
0
0
3.65934e-14
8.76756e-13
1.59755e-11
2.12911e-10
2.0858e-09
1.53919e-08
8.82726e-08
4.06014e-07
1.54126e-06
4.95021e-06
1.37401e-05
3.35859e-05
7.37448e-05
0.000147925
0.00027568
0.000486123
0.000827281
0.00138712
0.0023383
0.00403363
0.00721186
0.0134385
0.0259773
0.0514314
0.1025
0.203037
0.397814
0.766703
1.44933
2.79844
5.369
7.27121
3.47773
1.63956
0.750859
0.330448
0.13848
0.0548028
0.0204131
0.00734306
0.00198614
0.000256118
1.78597e-05
7.29561e-07
1.86221e-08
3.44556e-10
5.9983e-12
1.35478e-13
5.6727e-15
0
0
0
0
0
0
0
0
0
0
0
0
0
0
0
0
0
0
0
0
0
0
0
0
0
0
0
0
0
0
0
0
0
0
0
0
0
0
0
0
0
0
0
0
0
0
0
0
0
0
0
3.6596e-14
8.69262e-13
1.59205e-11
2.12128e-10
2.07824e-09
1.53369e-08
8.796e-08
4.04582e-07
1.53583e-06
4.93269e-06
1.36912e-05
3.34653e-05
7.34768e-05
0.000147379
0.000274637
0.00048422
0.000823885
0.00138105
0.00232724
0.00401278
0.00717108
0.0133561
0.025808
0.0510828
0.101804
0.201671
0.395169
0.76183
1.44012
2.7806
5.33485
7.30446
3.49424
1.64774
0.754858
0.332349
0.139346
0.0551777
0.0205636
0.0074007
0.00201293
0.000261349
1.8324e-05
7.52207e-07
1.9276e-08
3.57355e-10
6.21254e-12
1.39608e-13
5.66966e-15
0
0
0
0
0
0
0
0
0
0
0
0
0
0
0
0
0
0
0
0
0
0
0
0
0
0
0
0
0
0
0
0
0
0
0
0
0
0
0
0
0
0
0
0
0
0
0
0
0
0
0
3.65989e-14
8.69336e-13
1.58445e-11
2.11209e-10
2.06935e-09
1.52717e-08
8.75864e-08
4.02856e-07
1.52921e-06
4.9112e-06
1.36307e-05
3.3315e-05
7.314e-05
0.000146687
0.000273309
0.000481784
0.000819515
0.00137321
0.00231292
0.00398575
0.00711813
0.0132489
0.0255879
0.0506346
0.100898
0.199889
0.39172
0.755465
1.42808
2.7573
5.2902
7.34768
3.51586
1.65846
0.760102
0.334843
0.140485
0.0556705
0.0207618
0.00747638
0.00204782
0.000268528
1.89584e-05
7.83087e-07
2.01663e-08
3.7472e-10
6.50548e-12
1.45814e-13
5.66577e-15
0
0
0
0
0
0
0
0
0
0
0
0
0
0
0
0
0
0
0
0
0
0
0
0
0
0
0
0
0
0
0
0
0
0
0
0
0
0
0
0
0
0
0
0
0
0
0
0
0
0
0
3.66019e-14
8.61852e-13
1.57686e-11
2.10205e-10
2.05955e-09
1.5199e-08
8.71647e-08
4.00884e-07
1.52157e-06
4.88608e-06
1.35592e-05
3.31356e-05
7.27341e-05
0.000145846
0.000271681
0.000478776
0.000814091
0.00136344
0.00229501
0.00395187
0.00705167
0.0131142
0.025311
0.0500644
0.0997564
0.197641
0.387365
0.747415
1.41287
2.72783
5.2337
7.4019
3.54335
1.6721
0.766787
0.338025
0.141939
0.0563008
0.0210157
0.00757306
0.00209248
0.000277846
1.97882e-05
8.23673e-07
2.13394e-08
3.97593e-10
6.88799e-12
1.54083e-13
5.66094e-15
0
0
0
0
0
0
0
0
0
0
0
0
0
0
0
0
0
0
0
0
0
0
0
0
0
0
0
0
0
0
0
0
0
0
0
0
0
0
0
0
0
0
0
0
0
0
0
0
0
0
0
3.66049e-14
8.61924e-13
1.56926e-11
2.09181e-10
2.04936e-09
1.51221e-08
8.67119e-08
3.98732e-07
1.5131e-06
4.85782e-06
1.34777e-05
3.29281e-05
7.22594e-05
0.000144851
0.000269737
0.000475157
0.00080752
0.00135155
0.00227312
0.00391036
0.0069701
0.0129488
0.0249703
0.0493684
0.0983476
0.194866
0.381982
0.737445
1.39402
2.69133
5.16365
7.46812
3.57781
1.68922
0.775187
0.34203
0.143771
0.057096
0.0213366
0.00769495
0.00214886
0.000289759
2.08579e-05
8.76305e-07
2.28667e-08
4.27374e-10
7.38594e-12
1.62291e-13
5.65511e-15
0
0
0
0
0
0
0
0
0
0
0
0
0
0
0
0
0
0
0
0
0
0
0
0
0
0
0
0
0
0
0
0
0
0
0
0
0
0
0
0
0
0
0
0
0
0
0
0
0
0
0
3.66073e-14
8.54421e-13
1.56234e-11
2.08191e-10
2.03937e-09
1.50453e-08
8.6249e-08
3.96484e-07
1.50407e-06
4.82707e-06
1.33874e-05
3.26947e-05
7.17173e-05
0.000143701
0.000267466
0.000470887
0.000799708
0.00133733
0.00224683
0.00386038
0.00687171
0.0127489
0.0245581
0.0485175
0.0966382
0.191493
0.375436
0.72529
1.37105
2.64681
5.07813
7.54674
3.62093
1.71066
0.785721
0.347058
0.146075
0.058097
0.0217414
0.00784818
0.00221972
0.000304946
2.22344e-05
9.44505e-07
2.48551e-08
4.66163e-10
8.02851e-12
1.74634e-13
6.77779e-15
0
0
0
0
0
0
0
0
0
0
0
0
0
0
0
0
0
0
0
0
0
0
0
0
0
0
0
0
0
0
0
0
0
0
0
0
0
0
0
0
0
0
0
0
0
0
0
0
0
0
0
3.66088e-14
8.54452e-13
1.55606e-11
2.07293e-10
2.03005e-09
1.49716e-08
8.57991e-08
3.94238e-07
1.49478e-06
4.79464e-06
1.329e-05
3.24382e-05
7.11117e-05
0.000142398
0.000264857
0.000465932
0.00079057
0.00132059
0.00221577
0.00380114
0.00675489
0.0125112
0.0240674
0.0475076
0.0945961
0.187458
0.367594
0.710691
1.34346
2.59333
4.97529
7.636
3.67545
1.73779
0.799054
0.353427
0.148994
0.0593665
0.0222556
0.00804236
0.00230902
0.000324395
2.40164e-05
1.03351e-06
2.74639e-08
5.17066e-10
8.86705e-12
1.91074e-13
6.76795e-15
0
0
0
0
0
0
0
0
0
0
0
0
0
0
0
0
0
0
0
0
0
0
0
0
0
0
0
0
0
0
0
0
0
0
0
0
0
0
0
0
0
0
0
0
0
0
0
0
0
0
0
3.66087e-14
8.54441e-13
1.55322e-11
2.06915e-10
2.02519e-09
1.49239e-08
8.54329e-08
3.92167e-07
1.48554e-06
4.76096e-06
1.31875e-05
3.21627e-05
7.04491e-05
0.000140947
0.000261914
0.000460279
0.000780051
0.0013012
0.00217964
0.00373206
0.00661845
0.0122334
0.023493
0.0463227
0.0921987
0.182715
0.358369
0.693468
1.31093
2.53026
4.85399
7.72864
3.74595
1.77282
0.816254
0.361635
0.152754
0.0610012
0.0229184
0.0082919
0.00242266
0.000349581
2.63527e-05
1.15125e-06
3.09351e-08
5.84774e-10
9.97067e-12
2.11559e-13
7.88253e-15
0
0
0
0
0
0
0
0
0
0
0
0
0
0
0
0
0
0
0
0
0
0
0
0
0
0
0
0
0
0
0
0
0
0
0
0
0
0
0
0
0
0
0
0
0
0
0
0
0
0
0
3.66071e-14
8.54388e-13
1.5538e-11
2.06924e-10
2.0242e-09
1.49059e-08
8.52615e-08
3.90972e-07
1.47916e-06
4.73349e-06
1.30884e-05
3.18755e-05
6.97421e-05
0.000139366
0.000258654
0.000453937
0.000768143
0.0012791
0.0021383
0.00365287
0.0064619
0.0119146
0.0228333
0.0449604
0.0894408
0.177255
0.347747
0.673593
1.27344
2.45769
4.71455
7.80717
3.8397
1.81922
0.83896
0.372443
0.157695
0.0631459
0.0237879
0.00861789
0.0025692
0.000382704
2.9469e-05
1.30989e-06
3.56409e-08
6.76476e-10
1.14482e-11
2.38115e-13
7.86694e-15
0
0
0
0
0
0
0
0
0
0
0
0
0
0
0
0
0
0
0
0
0
0
0
0
0
0
0
0
0
0
0
0
0
0
0
0
0
0
0
0
0
0
0
0
0
0
0
0
0
0
0
3.66029e-14
8.5426e-13
1.55986e-11
2.07614e-10
2.02932e-09
1.49271e-08
8.52731e-08
3.90475e-07
1.47509e-06
4.71328e-06
1.30116e-05
3.16247e-05
6.90265e-05
0.000137666
0.000255102
0.000446937
0.00075488
0.00125435
0.00209183
0.00356368
0.00628549
0.0115553
0.02209
0.0434261
0.086332
0.171102
0.335784
0.65118
1.2313
2.37634
4.55875
7.84309
3.96665
1.88168
0.869386
0.386873
0.164274
0.0659965
0.024944
0.00904972
0.00276052
0.000427035
3.37136e-05
1.52856e-06
4.21736e-08
8.03537e-10
1.34696e-11
2.74806e-13
8.97027e-15
1.18191e-15
0
0
0
0
0
0
0
0
0
0
0
0
0
0
0
0
0
0
0
0
0
0
0
0
0
0
0
0
0
0
0
0
0
0
0
0
0
0
0
0
0
0
0
0
0
0
0
0
0
0
3.65943e-14
8.61564e-13
1.5741e-11
2.09402e-10
2.04442e-09
1.50147e-08
8.56135e-08
3.91231e-07
1.47477e-06
4.70193e-06
1.29523e-05
3.14146e-05
6.84233e-05
0.000136098
0.000251383
0.000439267
0.00074033
0.00122709
0.00204046
0.00346491
0.00609003
0.0111573
0.0212666
0.041725
0.0828838
0.164275
0.322525
0.626307
1.18474
2.28685
4.38813
7.80581
4.13768
1.96538
0.910012
0.406091
0.173022
0.0697857
0.0264832
0.00962367
0.00301159
0.000487267
3.96145e-05
1.83712e-06
5.14696e-08
9.83937e-10
1.6289e-11
3.23532e-13
1.11834e-14
1.17994e-15
0
0
0
0
0
0
0
0
0
0
0
0
0
0
0
0
0
0
0
0
0
0
0
0
0
0
0
0
0
0
0
0
0
0
0
0
0
0
0
0
0
0
0
0
0
0
0
0
0
0
3.65756e-14
8.83681e-13
1.60745e-11
2.13224e-10
2.0763e-09
1.5209e-08
8.64831e-08
3.94066e-07
1.48101e-06
4.70736e-06
1.29274e-05
3.12602e-05
6.78922e-05
0.000134673
0.000248066
0.000431942
0.000725011
0.00119785
0.00198487
0.00335755
0.00587722
0.0107238
0.020369
0.0398691
0.0791087
0.156785
0.307948
0.598748
1.1332
2.18915
4.2029
7.67501
4.36211
2.07486
0.963092
0.431215
0.184478
0.0747587
0.0285099
0.0103811
0.00333932
0.000570046
4.79922e-05
2.28411e-06
6.50833e-08
1.24725e-09
2.03123e-11
3.90256e-13
1.11501e-14
1.17777e-15
0
0
0
0
0
0
0
0
0
0
0
0
0
0
0
0
0
0
0
0
0
0
0
0
0
0
0
0
0
0
0
0
0
0
0
0
0
0
0
0
0
0
0
0
0
0
0
0
0
0
3.65589e-14
8.98229e-13
1.65039e-11
2.19535e-10
2.13062e-09
1.55517e-08
8.80972e-08
3.99839e-07
1.49664e-06
4.7376e-06
1.29569e-05
3.1204e-05
6.75009e-05
0.000133386
0.000244807
0.00042477
0.000710104
0.0011671
0.00192588
0.00324318
0.00565042
0.010262
0.0194131
0.037891
0.0750938
0.148828
0.292517
0.569251
1.07865
2.08336
4.00167
7.44527
4.64145
2.21139
1.02952
0.462804
0.198963
0.0810884
0.0311103
0.0113585
0.00376027
0.000683827
6.00362e-05
2.94443e-06
8.5508e-08
1.64194e-09
2.621e-11
4.82791e-13
1.33347e-14
1.1753e-15
0
0
0
0
0
0
0
0
0
0
0
0
0
0
0
0
0
0
0
0
0
0
0
0
0
0
0
0
0
0
0
0
0
0
0
0
0
0
0
0
0
0
0
0
0
0
0
0
0
0
3.65306e-14
9.35077e-13
1.71101e-11
2.27932e-10
2.22159e-09
1.61703e-08
9.09491e-08
4.10237e-07
1.52669e-06
4.80564e-06
1.30706e-05
3.13088e-05
6.73743e-05
0.000132458
0.000241909
0.000417785
0.00069537
0.00113751
0.00186453
0.0031222
0.0054131
0.00977891
0.0184094
0.0358013
0.0708171
0.140293
0.275843
0.537148
1.01896
1.9683
3.78262
7.12758
4.9732
2.37409
1.10914
0.500937
0.216593
0.0888639
0.0343386
0.012583
0.0042871
0.000838828
7.74896e-05
3.93602e-06
1.16726e-07
2.24128e-09
3.48431e-11
6.1088e-13
1.77157e-14
1.17283e-15
0
0
0
0
0
0
0
0
0
0
0
0
0
0
0
0
0
0
0
0
0
0
0
0
0
0
0
0
0
0
0
0
0
0
0
0
0
0
0
0
0
0
0
0
0
0
0
0
0
0
4.05492e-14
9.79069e-13
1.80091e-11
2.39531e-10
2.32492e-09
1.69299e-08
9.52683e-08
4.26494e-07
1.5754e-06
4.92288e-06
1.32946e-05
3.16286e-05
6.76199e-05
0.000132112
0.000239843
0.000411872
0.000681882
0.00111005
0.00181124
0.0030125
0.00518157
0.00930372
0.0174147
0.0337145
0.0665048
0.13159
0.258641
0.503597
0.955615
1.84711
3.55221
6.74843
5.34361
2.55641
1.19888
0.54424
0.236791
0.0978641
0.0381202
0.0140385
0.00490311
0.00104256
0.000102483
5.43579e-06
1.65719e-07
3.19534e-09
4.83865e-11
8.0177e-13
1.98456e-14
1.16992e-15
0
0
0
0
0
0
0
0
0
0
0
0
0
0
0
0
0
0
0
0
0
0
0
0
0
0
0
0
0
0
0
0
0
0
0
0
0
0
0
0
0
0
0
0
0
0
0
0
0
0
4.04987e-14
1.0451e-12
1.93008e-11
2.57177e-10
2.48882e-09
1.79884e-08
1.00639e-07
4.49593e-07
1.64597e-06
5.09903e-06
1.3654e-05
3.222e-05
6.83551e-05
0.00013258
0.000239066
0.00040797
0.00067148
0.00108703
0.00176432
0.00292071
0.00499566
0.00890584
0.0165752
0.0319562
0.062894
0.124381
0.244625
0.476912
0.90843
1.7253
3.33188
6.36384
5.71528
2.73904
1.28899
0.587961
0.257353
0.107127
0.0420665
0.0155848
0.00554383
0.00128473
0.000135453
7.52994e-06
2.35779e-07
4.5355e-09
6.61116e-11
1.02508e-12
2.41713e-14
1.16786e-15
0
0
0
0
0
0
0
0
0
0
0
0
0
0
0
0
0
0
0
0
0
0
0
0
0
0
0
0
0
0
0
0
0
0
0
0
0
0
0
0
0
0
0
0
0
0
0
0
0
0
4.44587e-14
1.15487e-12
2.14663e-11
2.84787e-10
2.72854e-09
1.9467e-08
1.0729e-07
4.737e-07
1.72601e-06
5.30527e-06
1.40829e-05
3.29513e-05
6.93591e-05
0.000133572
0.000239336
0.000406153
0.000665158
0.00107184
0.00173188
0.00285412
0.00486243
0.00863198
0.0159988
0.0307326
0.0603296
0.119111
0.233999
0.455712
0.869018
1.64887
3.18369
6.09183
5.96207
2.86239
1.3509
0.618531
0.272005
0.113867
0.0450069
0.0167681
0.00603103
0.00150438
0.000171113
1.01121e-05
3.32002e-07
6.52766e-09
9.34317e-11
1.36256e-12
3.06336e-14
1.16545e-15
0
0
0
0
0
0
0
0
0
0
0
0
0
0
0
0
0
0
0
0
0
0
0
0
0
)
;

boundaryField
{
    fuel
    {
        type            calculated;
        value           uniform 0;
    }
    air
    {
        type            calculated;
        value           uniform 0;
    }
    outlet
    {
        type            calculated;
        value           uniform 0;
    }
    frontAndBack
    {
        type            empty;
    }
}


// ************************************************************************* //
