/*--------------------------------*- C++ -*----------------------------------*\
  =========                 |
  \\      /  F ield         | OpenFOAM: The Open Source CFD Toolbox
   \\    /   O peration     | Website:  https://openfoam.org
    \\  /    A nd           | Version:  10
     \\/     M anipulation  |
\*---------------------------------------------------------------------------*/
FoamFile
{
    format      ascii;
    class       volScalarField;
    location    "1";
    object      RR.O2;
}
// * * * * * * * * * * * * * * * * * * * * * * * * * * * * * * * * * * * * * //

dimensions      [1 -3 -1 0 0 0 0];

internalField   nonuniform List<scalar> 
4000
(
0
0
0
0
0
0
0
0
0
0
0
0
0
0
0
0
0
0
0
0
0
0
-2.41316e-18
-7.16376e-17
-2.49367e-15
-8.03306e-14
-2.04866e-12
-3.81293e-11
-5.05879e-10
-4.84677e-09
-3.45794e-08
-1.90578e-07
-8.4142e-07
-3.06583e-06
-9.42348e-06
-2.50147e-05
-5.85292e-05
-0.000123198
-0.000237255
-0.000425116
-0.000721422
-0.00118148
-0.00190385
-0.00307625
-0.00506963
-0.0086369
-0.0153325
-0.0284177
-0.0545881
-0.107156
-0.211568
-0.41563
-0.809431
-1.54353
-2.92865
-5.65467
-10.8198
-10.5908
-5.08467
-2.39972
-1.09877
-0.4832
-0.202281
-0.0799543
-0.0297887
-0.0107144
-0.00267282
-0.000304039
-1.79685e-05
-5.89974e-07
-1.16003e-08
-1.6606e-10
-2.43656e-12
0
0
0
0
0
0
0
0
0
0
0
0
0
0
0
0
0
0
0
0
0
0
0
0
0
0
0
0
0
0
0
0
0
0
0
0
0
0
0
0
0
0
0
0
0
0
0
0
0
-2.41291e-18
-6.93992e-17
-2.35327e-15
-7.37518e-14
-1.85075e-12
-3.42854e-11
-4.56829e-10
-4.42089e-09
-3.19526e-08
-1.78762e-07
-7.98598e-07
-2.92368e-06
-9.05716e-06
-2.42527e-05
-5.72303e-05
-0.000121414
-0.000235491
-0.000424635
-0.000724646
-0.0011927
-0.00193081
-0.00313383
-0.00518784
-0.00887335
-0.0158186
-0.0294409
-0.0567602
-0.111714
-0.220922
-0.434494
-0.847069
-1.61351
-3.06436
-5.91782
-11.3029
-10.1522
-4.86546
-2.2897
-1.04444
-0.457159
-0.190301
-0.0747281
-0.0276855
-0.00984849
-0.00228248
-0.000240667
-1.33796e-05
-4.18965e-07
-8.05965e-09
-1.1744e-10
-1.80799e-12
0
0
0
0
0
0
0
0
0
0
0
0
0
0
0
0
0
0
0
0
0
0
0
0
0
0
0
0
0
0
0
0
0
0
0
0
0
0
0
0
0
0
0
0
0
0
0
0
0
-2.41251e-18
-6.94149e-17
-2.2795e-15
-7.01354e-14
-1.73842e-12
-3.19869e-11
-4.2548e-10
-4.12974e-09
-3.00723e-08
-1.69223e-07
-7.5757e-07
-2.79832e-06
-8.74427e-06
-2.36145e-05
-5.61798e-05
-0.000120109
-0.00023466
-0.000426014
-0.000731576
-0.00121117
-0.0019717
-0.00321716
-0.00535084
-0.00920355
-0.0165253
-0.0309322
-0.0598836
-0.118123
-0.233727
-0.459391
-0.894469
-1.69732
-3.28073
-6.3092
-11.9861
-9.49194
-4.54101
-2.12961
-0.96676
-0.420627
-0.173844
-0.0677166
-0.0249381
-0.00871014
-0.0018522
-0.000182083
-9.6583e-06
-2.94462e-07
-5.67796e-09
-8.59871e-11
-1.42896e-12
0
0
0
0
0
0
0
0
0
0
0
0
0
0
0
0
0
0
0
0
0
0
0
0
0
0
0
0
0
0
0
0
0
0
0
0
0
0
0
0
0
0
0
0
0
0
0
0
0
-2.41273e-18
-6.83013e-17
-2.2139e-15
-6.73235e-14
-1.65629e-12
-3.03915e-11
-4.04879e-10
-3.94621e-09
-2.87232e-08
-1.61551e-07
-7.28691e-07
-2.7118e-06
-8.53602e-06
-2.32166e-05
-5.56118e-05
-0.000119672
-0.000235275
-0.000429685
-0.00074208
-0.00123513
-0.00202047
-0.00331181
-0.0055457
-0.00961484
-0.0173694
-0.032699
-0.0635908
-0.125787
-0.249187
-0.489948
-0.95407
-1.80984
-3.496
-6.71847
-12.6596
-8.83396
-4.21714
-1.97019
-0.889834
-0.384745
-0.157855
-0.0609985
-0.0223524
-0.00761577
-0.00149023
-0.000137673
-6.99333e-06
-2.07402e-07
-3.98254e-09
-6.18903e-11
-1.04605e-12
0
0
0
0
0
0
0
0
0
0
0
0
0
0
0
0
0
0
0
0
0
0
0
0
0
0
0
0
0
0
0
0
0
0
0
0
0
0
0
0
0
0
0
0
0
0
0
0
0
-2.41275e-18
-6.71799e-17
-2.16503e-15
-6.5313e-14
-1.5999e-12
-2.93087e-11
-3.89965e-10
-3.78463e-09
-2.76243e-08
-1.56485e-07
-7.10221e-07
-2.65842e-06
-8.41516e-06
-2.30147e-05
-5.54257e-05
-0.000119897
-0.000236924
-0.000434834
-0.000754489
-0.0012613
-0.00207303
-0.0034208
-0.00576061
-0.0100364
-0.0182275
-0.0344818
-0.0673014
-0.133381
-0.264346
-0.519562
-1.01108
-1.91585
-3.70037
-7.10756
-13.224
-8.24466
-3.92812
-1.82876
-0.822096
-0.353428
-0.144042
-0.0552634
-0.020177
-0.00667985
-0.00121485
-0.000106662
-5.23141e-06
-1.51929e-07
-2.91747e-09
-4.65688e-11
-9.20378e-13
0
0
0
0
0
0
0
0
0
0
0
0
0
0
0
0
0
0
0
0
0
0
0
0
0
0
0
0
0
0
0
0
0
0
0
0
0
0
0
0
0
0
0
0
0
0
0
0
0
-2.41295e-18
-6.60552e-17
-2.13693e-15
-6.41759e-14
-1.56496e-12
-2.8554e-11
-3.78761e-10
-3.68814e-09
-2.70154e-08
-1.53618e-07
-6.99965e-07
-2.63065e-06
-8.36145e-06
-2.29623e-05
-5.55256e-05
-0.000120592
-0.000239211
-0.000440621
-0.000767225
-0.00128778
-0.00212766
-0.00352557
-0.00596377
-0.0104393
-0.0190478
-0.0361798
-0.070814
-0.140513
-0.27848
-0.546972
-1.06348
-2.01275
-3.88828
-7.46498
-13.6322
-7.74842
-3.6856
-1.71076
-0.765979
-0.327695
-0.132798
-0.0506439
-0.0184407
-0.00593198
-0.00101269
-8.52629e-05
-4.05811e-06
-1.15636e-07
-2.21607e-09
-3.61237e-11
-6.60746e-13
0
0
0
0
0
0
0
0
0
0
0
0
0
0
0
0
0
0
0
0
0
0
0
0
0
0
0
0
0
0
0
0
0
0
0
0
0
0
0
0
0
0
0
0
0
0
0
0
0
-2.41304e-18
-6.60669e-17
-2.10783e-15
-6.29818e-14
-1.53195e-12
-2.79578e-11
-3.7197e-10
-3.63148e-09
-2.66703e-08
-1.52073e-07
-6.9493e-07
-2.61957e-06
-8.35179e-06
-2.30064e-05
-5.57998e-05
-0.000121536
-0.000241741
-0.000446513
-0.000780239
-0.001315
-0.00217959
-0.00362433
-0.00615447
-0.0108173
-0.0198179
-0.0377743
-0.0741171
-0.147219
-0.291786
-0.572865
-1.11244
-2.1043
-4.06181
-7.79399
-13.8646
-7.34973
-3.4911
-1.61646
-0.721338
-0.307326
-0.123962
-0.0470432
-0.017095
-0.00534972
-0.000865618
-7.03775e-05
-3.26388e-06
-9.14453e-08
-1.74821e-09
-2.89982e-11
-5.30922e-13
0
0
0
0
0
0
0
0
0
0
0
0
0
0
0
0
0
0
0
0
0
0
0
0
0
0
0
0
0
0
0
0
0
0
0
0
0
0
0
0
0
0
0
0
0
0
0
0
0
-2.41308e-18
-6.60721e-17
-2.0975e-15
-6.25021e-14
-1.51833e-12
-2.77029e-11
-3.68793e-10
-3.60463e-09
-2.65147e-08
-1.51468e-07
-6.93585e-07
-2.62013e-06
-8.37195e-06
-2.31116e-05
-5.61729e-05
-0.000122607
-0.000244527
-0.000453119
-0.000793862
-0.00134084
-0.00222802
-0.00371557
-0.00632991
-0.0111645
-0.0205248
-0.0392369
-0.0771339
-0.153344
-0.30391
-0.596416
-1.15661
-2.187
-4.22077
-8.09704
-13.931
-7.04588
-3.34239
-1.54428
-0.687202
-0.291801
-0.11723
-0.0443086
-0.0160752
-0.00490372
-0.000758615
-5.98935e-05
-2.71563e-06
-7.49275e-08
-1.42759e-09
-2.39458e-11
-5.32955e-13
0
0
0
0
0
0
0
0
0
0
0
0
0
0
0
0
0
0
0
0
0
0
0
0
0
0
0
0
0
0
0
0
0
0
0
0
0
0
0
0
0
0
0
0
0
0
0
0
0
-2.41305e-18
-6.60738e-17
-2.09445e-15
-6.23305e-14
-1.51296e-12
-2.76003e-11
-3.67567e-10
-3.59555e-09
-2.64769e-08
-1.51447e-07
-6.94467e-07
-2.62735e-06
-8.40781e-06
-2.32481e-05
-5.66184e-05
-0.000123878
-0.000247547
-0.000459428
-0.000806295
-0.00136439
-0.00227198
-0.00379811
-0.00648832
-0.0114778
-0.0211629
-0.0405568
-0.0798591
-0.158865
-0.31484
-0.617664
-1.19642
-2.26185
-4.36526
-8.37376
-13.8673
-6.82032
-3.23142
-1.49022
-0.661563
-0.280112
-0.112166
-0.0422545
-0.015308
-0.00456383
-0.000679854
-5.23519e-05
-2.32709e-06
-6.33198e-08
-1.20183e-09
-2.02848e-11
-4.01035e-13
0
0
0
0
0
0
0
0
0
0
0
0
0
0
0
0
0
0
0
0
0
0
0
0
0
0
0
0
0
0
0
0
0
0
0
0
0
0
0
0
0
0
0
0
0
0
0
0
0
-2.413e-18
-6.60738e-17
-2.09556e-15
-6.23292e-14
-1.51238e-12
-2.75897e-11
-3.67542e-10
-3.5973e-09
-2.65089e-08
-1.51751e-07
-6.96588e-07
-2.63869e-06
-8.45662e-06
-2.34242e-05
-5.71284e-05
-0.000125134
-0.000250354
-0.000465218
-0.000817558
-0.00138554
-0.00231121
-0.00387151
-0.00662895
-0.0117558
-0.0217291
-0.0417283
-0.0822789
-0.163763
-0.324537
-0.636529
-1.23172
-2.32842
-4.49416
-8.62142
-13.7279
-6.65376
-3.14899
-1.44988
-0.642362
-0.271334
-0.108356
-0.0407097
-0.0147289
-0.00430348
-0.000621005
-4.68151e-05
-2.04523e-06
-5.49584e-08
-1.03891e-09
-1.76781e-11
-4.0217e-13
0
0
0
0
0
0
0
0
0
0
0
0
0
0
0
0
0
0
0
0
0
0
0
0
0
0
0
0
0
0
0
0
0
0
0
0
0
0
0
0
0
0
0
0
0
0
0
0
0
-2.41292e-18
-6.60721e-17
-2.10087e-15
-6.24406e-14
-1.51467e-12
-2.76325e-11
-3.68223e-10
-3.60593e-09
-2.65936e-08
-1.52402e-07
-7.00266e-07
-2.65509e-06
-8.51641e-06
-2.36061e-05
-5.76175e-05
-0.00012631
-0.000252929
-0.000470444
-0.000827597
-0.00140422
-0.00234564
-0.00393568
-0.00675163
-0.0119981
-0.0222225
-0.0427484
-0.0843838
-0.168021
-0.33296
-0.652914
-1.26231
-2.38621
-4.60617
-8.8369
-13.5633
-6.52851
-3.08676
-1.41933
-0.627779
-0.264653
-0.105451
-0.0395323
-0.0142856
-0.0041016
-0.000576257
-4.2664e-05
-1.83603e-06
-4.87906e-08
-9.18617e-10
-1.57772e-11
-4.03143e-13
0
0
0
0
0
0
0
0
0
0
0
0
0
0
0
0
0
0
0
0
0
0
0
0
0
0
0
0
0
0
0
0
0
0
0
0
0
0
0
0
0
0
0
0
0
0
0
0
0
-2.4128e-18
-6.6069e-17
-2.11037e-15
-6.27023e-14
-1.52088e-12
-2.77468e-11
-3.69808e-10
-3.62246e-09
-2.67244e-08
-1.532e-07
-7.04252e-07
-2.67158e-06
-8.574e-06
-2.3779e-05
-5.8073e-05
-0.000127386
-0.000255245
-0.000475076
-0.000836395
-0.00142045
-0.00237537
-0.00399085
-0.00685683
-0.0122056
-0.0226446
-0.0436202
-0.086176
-0.171648
-0.340127
-0.666842
-1.28824
-2.43522
-4.70118
-9.01958
-13.4048
-6.43165
-3.03856
-1.39564
-0.616465
-0.259467
-0.103196
-0.0386188
-0.0139406
-0.00394295
-0.000541701
-3.94978e-05
-1.67788e-06
-4.41552e-08
-8.28104e-10
-1.42252e-11
-2.69314e-13
0
0
0
0
0
0
0
0
0
0
0
0
0
0
0
0
0
0
0
0
0
0
0
0
0
0
0
0
0
0
0
0
0
0
0
0
0
0
0
0
0
0
0
0
0
0
0
0
0
-2.41267e-18
-6.7204e-17
-2.11983e-15
-6.2994e-14
-1.52792e-12
-2.78759e-11
-3.71561e-10
-3.64018e-09
-2.68608e-08
-1.54022e-07
-7.08244e-07
-2.68763e-06
-8.6286e-06
-2.39394e-05
-5.84876e-05
-0.000128348
-0.000257287
-0.000479111
-0.000843979
-0.00143432
-0.00240063
-0.00403752
-0.00694559
-0.0123803
-0.0229996
-0.0443522
-0.0876818
-0.174684
-0.346118
-0.67847
-1.30983
-2.47603
-4.78026
-9.17149
-13.2651
-6.35504
-3.00046
-1.37692
-0.607531
-0.255374
-0.101417
-0.0378995
-0.0136683
-0.00381705
-0.000514718
-3.70521e-05
-1.5567e-06
-4.0622e-08
-7.59224e-10
-1.3151e-11
-2.69781e-13
0
0
0
0
0
0
0
0
0
0
0
0
0
0
0
0
0
0
0
0
0
0
0
0
0
0
0
0
0
0
0
0
0
0
0
0
0
0
0
0
0
0
0
0
0
0
0
0
0
-2.41254e-18
-6.71996e-17
-2.13034e-15
-6.33027e-14
-1.53543e-12
-2.80125e-11
-3.73389e-10
-3.6583e-09
-2.69972e-08
-1.54826e-07
-7.12064e-07
-2.70266e-06
-8.67878e-06
-2.40842e-05
-5.8856e-05
-0.000129191
-0.000259053
-0.000482562
-0.000850407
-0.00144599
-0.00242176
-0.0040764
-0.00701932
-0.0125252
-0.0232935
-0.0449574
-0.0889242
-0.177186
-0.351048
-0.688032
-1.32754
-2.5095
-4.8451
-9.29594
-13.1475
-6.29381
-2.97004
-1.362
-0.600415
-0.252119
-0.100004
-0.0373293
-0.0134518
-0.00371687
-0.00049355
-3.51514e-05
-1.46318e-06
-3.79081e-08
-7.0626e-10
-1.21905e-11
-2.70172e-13
0
0
0
0
0
0
0
0
0
0
0
0
0
0
0
0
0
0
0
0
0
0
0
0
0
0
0
0
0
0
0
0
0
0
0
0
0
0
0
0
0
0
0
0
0
0
0
0
0
-2.41241e-18
-6.71951e-17
-2.13977e-15
-6.36092e-14
-1.54283e-12
-2.81468e-11
-3.75168e-10
-3.67571e-09
-2.71263e-08
-1.55574e-07
-7.15565e-07
-2.71623e-06
-8.72338e-06
-2.42111e-05
-5.91746e-05
-0.000129912
-0.000260547
-0.000485454
-0.000855748
-0.00145563
-0.00243911
-0.00410821
-0.00707949
-0.0126432
-0.0235327
-0.0454493
-0.0899329
-0.179215
-0.355041
-0.695768
-1.34185
-2.53654
-4.89746
-9.39633
-13.0511
-6.24496
-2.9458
-1.35012
-0.59476
-0.249535
-0.0988846
-0.0368782
-0.01328
-0.00363751
-0.000476993
-3.36768e-05
-1.39106e-06
-3.58233e-08
-6.65684e-10
-1.15927e-11
-2.70494e-13
0
0
0
0
0
0
0
0
0
0
0
0
0
0
0
0
0
0
0
0
0
0
0
0
0
0
0
0
0
0
0
0
0
0
0
0
0
0
0
0
0
0
0
0
0
0
0
0
0
-2.41228e-18
-6.83297e-17
-2.14921e-15
-6.38901e-14
-1.54967e-12
-2.82704e-11
-3.76795e-10
-3.69147e-09
-2.72419e-08
-1.56237e-07
-7.1863e-07
-2.72797e-06
-8.76154e-06
-2.43185e-05
-5.94415e-05
-0.00013051
-0.000261775
-0.000487813
-0.000860075
-0.00146339
-0.00245303
-0.00413365
-0.0071275
-0.0127372
-0.0237229
-0.04584
-0.0907355
-0.180824
-0.358206
-0.701896
-1.35315
-2.55791
-4.93886
-9.47565
-12.9743
-6.20655
-2.92676
-1.3408
-0.590328
-0.247512
-0.0980087
-0.036526
-0.0131455
-0.00357551
-0.000464235
-3.25494e-05
-1.33618e-06
-3.42412e-08
-6.3488e-10
-1.09896e-11
-2.70754e-13
0
0
0
0
0
0
0
0
0
0
0
0
0
0
0
0
0
0
0
0
0
0
0
0
0
0
0
0
0
0
0
0
0
0
0
0
0
0
0
0
0
0
0
0
0
0
0
0
0
-2.41218e-18
-6.8326e-17
-2.15761e-15
-6.41338e-14
-1.55558e-12
-2.83767e-11
-3.78187e-10
-3.70487e-09
-2.73395e-08
-1.56792e-07
-7.21171e-07
-2.73762e-06
-8.79264e-06
-2.44053e-05
-5.96555e-05
-0.000130986
-0.000262746
-0.000489665
-0.000863454
-0.00146942
-0.00246381
-0.0041533
-0.00716454
-0.0128097
-0.0238695
-0.0461408
-0.0913522
-0.18206
-0.360633
-0.706593
-1.36181
-2.57428
-4.97055
-9.53635
-12.9153
-6.17722
-2.91223
-1.33369
-0.58695
-0.245971
-0.0973424
-0.0362584
-0.013043
-0.00352788
-0.000454938
-3.17241e-05
-1.29593e-06
-3.3079e-08
-6.12064e-10
-1.06293e-11
-2.70956e-13
0
0
0
0
0
0
0
0
0
0
0
0
0
0
0
0
0
0
0
0
0
0
0
0
0
0
0
0
0
0
0
0
0
0
0
0
0
0
0
0
0
0
0
0
0
0
0
0
0
-2.41209e-18
-6.83231e-17
-2.16389e-15
-6.43248e-14
-1.56024e-12
-2.84605e-11
-3.7928e-10
-3.71536e-09
-2.74154e-08
-1.57221e-07
-7.23126e-07
-2.74499e-06
-8.81626e-06
-2.44708e-05
-5.98162e-05
-0.000131341
-0.000263467
-0.000491034
-0.000865941
-0.00147384
-0.00247169
-0.00416764
-0.00719152
-0.0128624
-0.0239761
-0.0463594
-0.0917993
-0.182956
-0.362395
-0.71
-1.36809
-2.58614
-4.99352
-9.58033
-12.8723
-6.15598
-2.90171
-1.32855
-0.584509
-0.244859
-0.0968615
-0.0360654
-0.012969
-0.0034935
-0.000448387
-3.11455e-05
-1.26781e-06
-3.22692e-08
-5.96196e-10
-1.03892e-11
-2.71103e-13
0
0
0
0
0
0
0
0
0
0
0
0
0
0
0
0
0
0
0
0
0
0
0
0
0
0
0
0
0
0
0
0
0
0
0
0
0
0
0
0
0
0
0
0
0
0
0
0
0
-2.41204e-18
-6.83211e-17
-2.16808e-15
-6.44573e-14
-1.56344e-12
-2.8518e-11
-3.80028e-10
-3.72251e-09
-2.7467e-08
-1.57512e-07
-7.24446e-07
-2.74996e-06
-8.83209e-06
-2.45146e-05
-5.9923e-05
-0.000131577
-0.000263943
-0.000491935
-0.000867573
-0.00147674
-0.00247684
-0.004177
-0.00720912
-0.0128968
-0.0240455
-0.0465018
-0.0920903
-0.18354
-0.363541
-0.712217
-1.37216
-2.59385
-5.00846
-9.60892
-12.8443
-6.14216
-2.89487
-1.32521
-0.582924
-0.244137
-0.0965497
-0.0359404
-0.012921
-0.00347128
-0.000444194
-3.07778e-05
-1.25006e-06
-3.17613e-08
-5.86326e-10
-1.027e-11
-2.71196e-13
0
0
0
0
0
0
0
0
0
0
0
0
0
0
0
0
0
0
0
0
0
0
0
0
0
0
0
0
0
0
0
0
0
0
0
0
0
0
0
0
0
0
0
0
0
0
0
0
0
-2.41201e-18
-6.83201e-17
-2.17018e-15
-6.45216e-14
-1.56498e-12
-2.85458e-11
-3.80391e-10
-3.72599e-09
-2.74922e-08
-1.57654e-07
-7.25089e-07
-2.75237e-06
-8.8398e-06
-2.45359e-05
-5.9975e-05
-0.000131691
-0.000264174
-0.000492373
-0.000868365
-0.00147815
-0.00247934
-0.00418155
-0.00721767
-0.0129136
-0.0240793
-0.0465712
-0.0922321
-0.183824
-0.364099
-0.713297
-1.37415
-2.59761
-5.01574
-9.62286
-12.8306
-6.13543
-2.89154
-1.32359
-0.582152
-0.243785
-0.0963981
-0.0358796
-0.0128977
-0.00346056
-0.00044219
-3.06033e-05
-1.2417e-06
-3.15235e-08
-5.81821e-10
-1.01484e-11
-2.7124e-13
0
0
0
0
0
0
0
0
0
0
0
0
0
0
0
0
0
0
0
0
0
0
0
0
0
0
0
0
0
0
0
0
0
0
0
0
0
0
0
0
0
0
0
0
0
0
0
0
0
-2.41201e-18
-6.83201e-17
-2.17018e-15
-6.45196e-14
-1.56498e-12
-2.85457e-11
-3.8039e-10
-3.72598e-09
-2.74921e-08
-1.57653e-07
-7.25087e-07
-2.75237e-06
-8.83979e-06
-2.45359e-05
-5.9975e-05
-0.000131691
-0.000264174
-0.000492372
-0.000868365
-0.00147815
-0.00247934
-0.00418155
-0.00721767
-0.0129136
-0.0240793
-0.0465712
-0.0922321
-0.183824
-0.364099
-0.713297
-1.37415
-2.59762
-5.01575
-9.62287
-12.8306
-6.13542
-2.89154
-1.32358
-0.582151
-0.243785
-0.0963979
-0.0358796
-0.0128976
-0.00346055
-0.000442187
-3.06031e-05
-1.24168e-06
-3.15232e-08
-5.81821e-10
-1.01484e-11
-2.7124e-13
0
0
0
0
0
0
0
0
0
0
0
0
0
0
0
0
0
0
0
0
0
0
0
0
0
0
0
0
0
0
0
0
0
0
0
0
0
0
0
0
0
0
0
0
0
0
0
0
0
-2.41204e-18
-6.83211e-17
-2.16808e-15
-6.44573e-14
-1.56342e-12
-2.85177e-11
-3.80025e-10
-3.72248e-09
-2.74668e-08
-1.57511e-07
-7.24442e-07
-2.74995e-06
-8.83206e-06
-2.45145e-05
-5.99229e-05
-0.000131577
-0.000263942
-0.000491934
-0.000867572
-0.00147674
-0.00247684
-0.004177
-0.00720912
-0.0128968
-0.0240455
-0.0465018
-0.0920904
-0.18354
-0.363541
-0.712218
-1.37217
-2.59386
-5.00848
-9.60896
-12.8443
-6.14214
-2.89486
-1.32521
-0.582921
-0.244135
-0.096549
-0.0359401
-0.0129209
-0.00347123
-0.000444186
-3.07771e-05
-1.25003e-06
-3.17604e-08
-5.86327e-10
-1.02701e-11
-2.71197e-13
0
0
0
0
0
0
0
0
0
0
0
0
0
0
0
0
0
0
0
0
0
0
0
0
0
0
0
0
0
0
0
0
0
0
0
0
0
0
0
0
0
0
0
0
0
0
0
0
0
-2.4121e-18
-6.83231e-17
-2.1639e-15
-6.43248e-14
-1.56021e-12
-2.846e-11
-3.79274e-10
-3.7153e-09
-2.74151e-08
-1.5722e-07
-7.23119e-07
-2.74498e-06
-8.81621e-06
-2.44707e-05
-5.9816e-05
-0.000131341
-0.000263466
-0.000491033
-0.000865939
-0.00147384
-0.00247168
-0.00416764
-0.00719151
-0.0128624
-0.0239761
-0.0463595
-0.0917994
-0.182957
-0.362396
-0.710003
-1.36809
-2.58615
-4.99355
-9.58039
-12.8722
-6.15593
-2.90169
-1.32854
-0.584504
-0.244856
-0.0968604
-0.036065
-0.0129688
-0.00349342
-0.000448373
-3.11443e-05
-1.26775e-06
-3.22676e-08
-5.96197e-10
-1.03893e-11
-2.71103e-13
0
0
0
0
0
0
0
0
0
0
0
0
0
0
0
0
0
0
0
0
0
0
0
0
0
0
0
0
0
0
0
0
0
0
0
0
0
0
0
0
0
0
0
0
0
0
0
0
0
-2.41218e-18
-6.83261e-17
-2.15761e-15
-6.41318e-14
-1.55553e-12
-2.8376e-11
-3.78178e-10
-3.7048e-09
-2.7339e-08
-1.5679e-07
-7.21163e-07
-2.73759e-06
-8.79257e-06
-2.44051e-05
-5.96552e-05
-0.000130986
-0.000262745
-0.000489664
-0.000863452
-0.00146942
-0.0024638
-0.0041533
-0.00716453
-0.0128097
-0.0238695
-0.0461409
-0.0913525
-0.18206
-0.360635
-0.706597
-1.36182
-2.5743
-4.97059
-9.53643
-12.9151
-6.17716
-2.9122
-1.33368
-0.586943
-0.245968
-0.0973408
-0.0362577
-0.0130428
-0.00352778
-0.000454918
-3.17224e-05
-1.29585e-06
-3.30766e-08
-6.12065e-10
-1.06293e-11
-2.70957e-13
0
0
0
0
0
0
0
0
0
0
0
0
0
0
0
0
0
0
0
0
0
0
0
0
0
0
0
0
0
0
0
0
0
0
0
0
0
0
0
0
0
0
0
0
0
0
0
0
0
-2.41228e-18
-6.83298e-17
-2.14922e-15
-6.38881e-14
-1.54962e-12
-2.82695e-11
-3.76785e-10
-3.69139e-09
-2.72414e-08
-1.56235e-07
-7.18619e-07
-2.72794e-06
-8.76145e-06
-2.43183e-05
-5.94411e-05
-0.00013051
-0.000261774
-0.000487811
-0.000860073
-0.00146339
-0.00245302
-0.00413365
-0.00712751
-0.0127373
-0.023723
-0.0458403
-0.0907333
-0.180825
-0.358208
-0.7019
-1.35316
-2.55794
-4.93891
-9.47576
-12.9742
-6.20647
-2.92672
-1.34078
-0.590318
-0.247507
-0.0980066
-0.0365251
-0.0131451
-0.00357537
-0.000464209
-3.25471e-05
-1.33607e-06
-3.42381e-08
-6.34771e-10
-1.09896e-11
-2.70755e-13
0
0
0
0
0
0
0
0
0
0
0
0
0
0
0
0
0
0
0
0
0
0
0
0
0
0
0
0
0
0
0
0
0
0
0
0
0
0
0
0
0
0
0
0
0
0
0
0
0
-2.41241e-18
-6.71951e-17
-2.13977e-15
-6.36053e-14
-1.54277e-12
-2.81458e-11
-3.75156e-10
-3.6756e-09
-2.71256e-08
-1.55571e-07
-7.15553e-07
-2.71619e-06
-8.72328e-06
-2.42109e-05
-5.91742e-05
-0.000129911
-0.000260545
-0.000485452
-0.000855745
-0.00145562
-0.0024391
-0.00410821
-0.0070795
-0.0126432
-0.0235327
-0.0454493
-0.0899372
-0.179216
-0.355043
-0.695774
-1.34186
-2.53656
-4.89752
-9.39647
-13.051
-6.24487
-2.94575
-1.3501
-0.594748
-0.249529
-0.0988821
-0.0368772
-0.0132796
-0.00363734
-0.00047696
-3.3674e-05
-1.39092e-06
-3.58193e-08
-6.65686e-10
-1.15927e-11
-2.70495e-13
0
0
0
0
0
0
0
0
0
0
0
0
0
0
0
0
0
0
0
0
0
0
0
0
0
0
0
0
0
0
0
0
0
0
0
0
0
0
0
0
0
0
0
0
0
0
0
0
0
-2.41254e-18
-6.71996e-17
-2.13034e-15
-6.33008e-14
-1.53535e-12
-2.80113e-11
-3.73376e-10
-3.65818e-09
-2.69964e-08
-1.54822e-07
-7.1205e-07
-2.70262e-06
-8.67867e-06
-2.40839e-05
-5.88554e-05
-0.00012919
-0.000259051
-0.00048256
-0.000850403
-0.00144599
-0.00242175
-0.00407639
-0.00701931
-0.0125252
-0.0232935
-0.0449574
-0.0889244
-0.177187
-0.351051
-0.688038
-1.32756
-2.50954
-4.84518
-9.2961
-13.1473
-6.2937
-2.96998
-1.36197
-0.600401
-0.252112
-0.100001
-0.0373281
-0.0134513
-0.00371667
-0.00049351
-3.51479e-05
-1.46301e-06
-3.79031e-08
-7.06153e-10
-1.21906e-11
-2.70173e-13
0
0
0
0
0
0
0
0
0
0
0
0
0
0
0
0
0
0
0
0
0
0
0
0
0
0
0
0
0
0
0
0
0
0
0
0
0
0
0
0
0
0
0
0
0
0
0
0
0
-2.41268e-18
-6.72041e-17
-2.11984e-15
-6.29901e-14
-1.52785e-12
-2.78746e-11
-3.71546e-10
-3.64005e-09
-2.686e-08
-1.54018e-07
-7.08228e-07
-2.68758e-06
-8.62847e-06
-2.39391e-05
-5.8487e-05
-0.000128347
-0.000257285
-0.000479108
-0.000843975
-0.00143432
-0.00240062
-0.00403751
-0.00694558
-0.0123803
-0.0229996
-0.0443523
-0.0876883
-0.174685
-0.34612
-0.678478
-1.30985
-2.47607
-4.78034
-9.17168
-13.2649
-6.35491
-3.00039
-1.37689
-0.607514
-0.255367
-0.101414
-0.0378981
-0.0136678
-0.00381682
-0.00051467
-3.70479e-05
-1.55649e-06
-4.0616e-08
-7.59008e-10
-1.3151e-11
-2.69782e-13
0
0
0
0
0
0
0
0
0
0
0
0
0
0
0
0
0
0
0
0
0
0
0
0
0
0
0
0
0
0
0
0
0
0
0
0
0
0
0
0
0
0
0
0
0
0
0
0
0
-2.41281e-18
-6.6069e-17
-2.10931e-15
-6.26984e-14
-1.5208e-12
-2.77454e-11
-3.69792e-10
-3.62232e-09
-2.67235e-08
-1.53196e-07
-7.04235e-07
-2.67152e-06
-8.57385e-06
-2.37787e-05
-5.80723e-05
-0.000127384
-0.000255243
-0.000475073
-0.000836389
-0.00142044
-0.00237536
-0.00399083
-0.0068568
-0.0122055
-0.0226446
-0.0436202
-0.0861769
-0.171649
-0.34013
-0.666849
-1.28826
-2.43526
-4.70127
-9.01978
-13.4045
-6.4315
-3.03848
-1.3956
-0.616446
-0.259458
-0.103192
-0.0386172
-0.01394
-0.00394268
-0.000541645
-3.94927e-05
-1.67763e-06
-4.41477e-08
-8.27999e-10
-1.42252e-11
-2.69315e-13
0
0
0
0
0
0
0
0
0
0
0
0
0
0
0
0
0
0
0
0
0
0
0
0
0
0
0
0
0
0
0
0
0
0
0
0
0
0
0
0
0
0
0
0
0
0
0
0
0
-2.41292e-18
-6.60721e-17
-2.10087e-15
-6.24387e-14
-1.51458e-12
-2.7631e-11
-3.68205e-10
-3.60577e-09
-2.65925e-08
-1.52396e-07
-7.00246e-07
-2.65502e-06
-8.51624e-06
-2.36057e-05
-5.76167e-05
-0.000126309
-0.000252927
-0.000470439
-0.000827589
-0.00140421
-0.00234563
-0.00393565
-0.00675159
-0.011998
-0.0222225
-0.0427486
-0.0843831
-0.168022
-0.332963
-0.652922
-1.26233
-2.38626
-4.60627
-8.83712
-13.5631
-6.52834
-3.08667
-1.41928
-0.627757
-0.264643
-0.105447
-0.0395304
-0.0142848
-0.00410129
-0.00057619
-4.26579e-05
-1.83572e-06
-4.87814e-08
-9.18404e-10
-1.57772e-11
-4.03144e-13
0
0
0
0
0
0
0
0
0
0
0
0
0
0
0
0
0
0
0
0
0
0
0
0
0
0
0
0
0
0
0
0
0
0
0
0
0
0
0
0
0
0
0
0
0
0
0
0
0
-2.41301e-18
-6.60738e-17
-2.09556e-15
-6.23253e-14
-1.51229e-12
-2.75881e-11
-3.67523e-10
-3.59714e-09
-2.65079e-08
-1.51746e-07
-6.96567e-07
-2.63862e-06
-8.45643e-06
-2.34237e-05
-5.71274e-05
-0.000125132
-0.000250351
-0.000465213
-0.000817548
-0.00138553
-0.00231119
-0.00387147
-0.00662889
-0.0117557
-0.021729
-0.0417282
-0.0822785
-0.163764
-0.324539
-0.636536
-1.23174
-2.32847
-4.49426
-8.62166
-13.7276
-6.65356
-3.14889
-1.44983
-0.642337
-0.271322
-0.10835
-0.0407077
-0.0147281
-0.00430313
-0.000620927
-4.68077e-05
-2.04486e-06
-5.49471e-08
-1.0387e-09
-1.76782e-11
-4.02172e-13
0
0
0
0
0
0
0
0
0
0
0
0
0
0
0
0
0
0
0
0
0
0
0
0
0
0
0
0
0
0
0
0
0
0
0
0
0
0
0
0
0
0
0
0
0
0
0
0
0
-2.41305e-18
-6.60738e-17
-2.09445e-15
-6.23266e-14
-1.51286e-12
-2.75987e-11
-3.67548e-10
-3.59538e-09
-2.64759e-08
-1.51442e-07
-6.94446e-07
-2.62729e-06
-8.40762e-06
-2.32477e-05
-5.66174e-05
-0.000123876
-0.000247543
-0.000459422
-0.000806284
-0.00136438
-0.00227195
-0.00379806
-0.00648824
-0.0114776
-0.0211627
-0.0405565
-0.0798588
-0.158865
-0.314841
-0.617669
-1.19644
-2.26189
-4.36536
-8.37399
-13.8671
-6.82007
-3.2313
-1.49016
-0.661533
-0.280098
-0.11216
-0.0422521
-0.0153071
-0.00456342
-0.00067976
-5.23429e-05
-2.32662e-06
-6.33053e-08
-1.20151e-09
-2.0285e-11
-4.01036e-13
0
0
0
0
0
0
0
0
0
0
0
0
0
0
0
0
0
0
0
0
0
0
0
0
0
0
0
0
0
0
0
0
0
0
0
0
0
0
0
0
0
0
0
0
0
0
0
0
0
-2.41308e-18
-6.60722e-17
-2.09751e-15
-6.24982e-14
-1.51823e-12
-2.77012e-11
-3.68773e-10
-3.60446e-09
-2.65136e-08
-1.51462e-07
-6.93562e-07
-2.62006e-06
-8.37174e-06
-2.31112e-05
-5.61719e-05
-0.000122605
-0.000244523
-0.000453112
-0.00079385
-0.00134082
-0.00222798
-0.00371551
-0.00632982
-0.0111643
-0.0205245
-0.0392364
-0.0771334
-0.153343
-0.303911
-0.59642
-1.15663
-2.18704
-4.22086
-8.09726
-13.9309
-7.04557
-3.34224
-1.54421
-0.687165
-0.291784
-0.117223
-0.0443057
-0.0160741
-0.00490324
-0.0007585
-5.98822e-05
-2.71503e-06
-7.49088e-08
-1.42728e-09
-2.39459e-11
-5.32958e-13
0
0
0
0
0
0
0
0
0
0
0
0
0
0
0
0
0
0
0
0
0
0
0
0
0
0
0
0
0
0
0
0
0
0
0
0
0
0
0
0
0
0
0
0
0
0
0
0
0
-2.41304e-18
-6.60669e-17
-2.10783e-15
-6.29759e-14
-1.53184e-12
-2.79561e-11
-3.71949e-10
-3.6313e-09
-2.66691e-08
-1.52067e-07
-6.94906e-07
-2.61949e-06
-8.35157e-06
-2.30059e-05
-5.57987e-05
-0.000121534
-0.000241737
-0.000446507
-0.000780227
-0.00131498
-0.00217955
-0.00362427
-0.00615438
-0.0108171
-0.0198176
-0.0377738
-0.074112
-0.147218
-0.291786
-0.572869
-1.11245
-2.10434
-4.0619
-7.79421
-13.8647
-7.34935
-3.49091
-1.61636
-0.7213
-0.307321
-0.123953
-0.0470394
-0.0170936
-0.0053492
-0.000865484
-7.03634e-05
-3.2631e-06
-9.14204e-08
-1.74769e-09
-2.88781e-11
-5.30925e-13
0
0
0
0
0
0
0
0
0
0
0
0
0
0
0
0
0
0
0
0
0
0
0
0
0
0
0
0
0
0
0
0
0
0
0
0
0
0
0
0
0
0
0
0
0
0
0
0
0
-2.41295e-18
-6.60553e-17
-2.13693e-15
-6.4172e-14
-1.56485e-12
-2.85522e-11
-3.78738e-10
-3.68794e-09
-2.70142e-08
-1.53611e-07
-6.9994e-07
-2.63057e-06
-8.36122e-06
-2.29617e-05
-5.55245e-05
-0.00012059
-0.000239207
-0.000440615
-0.000767215
-0.00128776
-0.00212762
-0.00352552
-0.00596369
-0.0104391
-0.0190476
-0.0361794
-0.0708156
-0.140513
-0.278482
-0.546978
-1.0635
-2.01279
-3.88837
-7.46519
-13.6324
-7.74798
-3.68538
-1.71065
-0.765924
-0.327671
-0.132787
-0.0506393
-0.018439
-0.0059313
-0.00101252
-8.52437e-05
-4.05704e-06
-1.15601e-07
-2.21535e-09
-3.6124e-11
-6.6075e-13
0
0
0
0
0
0
0
0
0
0
0
0
0
0
0
0
0
0
0
0
0
0
0
0
0
0
0
0
0
0
0
0
0
0
0
0
0
0
0
0
0
0
0
0
0
0
0
0
0
-2.41275e-18
-6.718e-17
-2.16504e-15
-6.5309e-14
-1.59979e-12
-2.93069e-11
-3.89943e-10
-3.78442e-09
-2.7623e-08
-1.56478e-07
-7.10194e-07
-2.65834e-06
-8.41493e-06
-2.30141e-05
-5.54246e-05
-0.000119895
-0.00023692
-0.000434827
-0.000754478
-0.00126129
-0.00207301
-0.00342076
-0.00576054
-0.0100363
-0.0182273
-0.0344817
-0.067302
-0.133382
-0.264348
-0.51957
-1.0111
-1.9159
-3.70047
-7.10777
-13.2243
-8.24415
-3.92787
-1.82864
-0.822034
-0.353399
-0.144029
-0.0552581
-0.0201749
-0.00667899
-0.00121461
-0.000106636
-5.2299e-06
-1.51879e-07
-2.91644e-09
-4.65692e-11
-9.20384e-13
0
0
0
0
0
0
0
0
0
0
0
0
0
0
0
0
0
0
0
0
0
0
0
0
0
0
0
0
0
0
0
0
0
0
0
0
0
0
0
0
0
0
0
0
0
0
0
0
0
-2.41273e-18
-6.83014e-17
-2.2139e-15
-6.73176e-14
-1.65617e-12
-3.03896e-11
-4.04857e-10
-3.94601e-09
-2.87218e-08
-1.61544e-07
-7.28663e-07
-2.71171e-06
-8.53578e-06
-2.32161e-05
-5.56107e-05
-0.00011967
-0.000235271
-0.000429679
-0.000742071
-0.00123512
-0.00202045
-0.00331178
-0.00554565
-0.00961476
-0.0173693
-0.0326988
-0.0635903
-0.125785
-0.249188
-0.489952
-0.954083
-1.80987
-3.49609
-6.71869
-12.66
-8.83341
-4.21686
-1.97005
-0.889765
-0.384713
-0.15784
-0.0609923
-0.02235
-0.00761475
-0.00148993
-0.000137637
-6.99116e-06
-2.07329e-07
-3.98102e-09
-6.18908e-11
-1.04606e-12
0
0
0
0
0
0
0
0
0
0
0
0
0
0
0
0
0
0
0
0
0
0
0
0
0
0
0
0
0
0
0
0
0
0
0
0
0
0
0
0
0
0
0
0
0
0
0
0
0
-2.41252e-18
-6.94149e-17
-2.27844e-15
-7.01296e-14
-1.73827e-12
-3.19844e-11
-4.25452e-10
-4.12952e-09
-3.00709e-08
-1.69216e-07
-7.5754e-07
-2.79822e-06
-8.74402e-06
-2.3614e-05
-5.61788e-05
-0.000120107
-0.000234657
-0.000426009
-0.000731567
-0.00121116
-0.00197168
-0.00321713
-0.0053508
-0.00920351
-0.0165253
-0.0309321
-0.0598837
-0.118126
-0.23373
-0.459399
-0.89449
-1.69736
-3.28084
-6.30944
-11.9866
-9.49132
-4.54069
-2.12945
-0.96668
-0.420588
-0.173826
-0.0677092
-0.0249351
-0.00870892
-0.0018518
-0.000182031
-9.65505e-06
-2.9435e-07
-5.67566e-09
-8.5988e-11
-1.42898e-12
0
0
0
0
0
0
0
0
0
0
0
0
0
0
0
0
0
0
0
0
0
0
0
0
0
0
0
0
0
0
0
0
0
0
0
0
0
0
0
0
0
0
0
0
0
0
0
0
0
-2.41291e-18
-6.93993e-17
-2.35327e-15
-7.3744e-14
-1.85059e-12
-3.42827e-11
-4.56798e-10
-4.42062e-09
-3.1951e-08
-1.78755e-07
-7.98568e-07
-2.92358e-06
-9.0569e-06
-2.42522e-05
-5.72293e-05
-0.000121412
-0.000235488
-0.00042463
-0.000724637
-0.00119268
-0.00193079
-0.00313379
-0.00518778
-0.00887329
-0.0158186
-0.029441
-0.0567607
-0.111712
-0.220926
-0.434503
-0.847092
-1.61355
-3.06447
-5.91808
-11.3035
-10.1515
-4.86509
-2.2895
-1.04434
-0.457111
-0.190279
-0.0747186
-0.0276817
-0.00984696
-0.00228194
-0.000240593
-1.33747e-05
-4.18791e-07
-8.05598e-09
-1.17442e-10
-1.80801e-12
0
0
0
0
0
0
0
0
0
0
0
0
0
0
0
0
0
0
0
0
0
0
0
0
0
0
0
0
0
0
0
0
0
0
0
0
0
0
0
0
0
0
0
0
0
0
0
0
0
-2.41317e-18
-7.16376e-17
-2.49368e-15
-8.03228e-14
-2.04847e-12
-3.81259e-11
-5.0584e-10
-4.84644e-09
-3.45774e-08
-1.90568e-07
-8.41386e-07
-3.06573e-06
-9.42322e-06
-2.50141e-05
-5.85281e-05
-0.000123196
-0.000237251
-0.000425109
-0.000721409
-0.00118146
-0.00190381
-0.00307617
-0.00506949
-0.00863665
-0.0153321
-0.0284171
-0.0545872
-0.107158
-0.211566
-0.41563
-0.809437
-1.54355
-2.92873
-5.65487
-10.8203
-10.5898
-5.08418
-2.39946
-1.09864
-0.483135
-0.202251
-0.0799413
-0.0297835
-0.0107123
-0.00267208
-0.000303932
-1.79611e-05
-5.89702e-07
-1.15945e-08
-1.65948e-10
-2.43659e-12
0
0
0
0
0
0
0
0
0
0
0
0
0
0
0
0
0
0
0
0
0
0
0
0
0
0
0
)
;

boundaryField
{
    fuel
    {
        type            calculated;
        value           uniform 0;
    }
    air
    {
        type            calculated;
        value           uniform 0;
    }
    outlet
    {
        type            calculated;
        value           uniform 0;
    }
    frontAndBack
    {
        type            empty;
    }
}


// ************************************************************************* //
