/*--------------------------------*- C++ -*----------------------------------*\
  =========                 |
  \\      /  F ield         | OpenFOAM: The Open Source CFD Toolbox
   \\    /   O peration     | Website:  https://openfoam.org
    \\  /    A nd           | Version:  10
     \\/     M anipulation  |
\*---------------------------------------------------------------------------*/
FoamFile
{
    format      ascii;
    class       volScalarField;
    location    "1";
    object      T;
}
// * * * * * * * * * * * * * * * * * * * * * * * * * * * * * * * * * * * * * //

dimensions      [0 0 0 1 0 0 0];

internalField   nonuniform List<scalar> 
4000
(
293
293
293
293
293
293
293.001
293.002
293.005
293.012
293.026
293.056
293.12
293.251
293.515
294.034
295.017
296.815
299.974
305.282
313.761
326.555
344.716
368.926
399.369
435.657
477.038
522.646
571.688
623.522
677.683
733.875
791.964
851.779
912.899
975.149
1038.37
1102.6
1167.73
1233.57
1299.96
1366.73
1433.68
1500.64
1567.4
1633.76
1699.51
1764.4
1828.18
1890.52
1950.97
2008.85
2062.96
2109.78
2146.81
2168.18
2157.94
2088.34
1962.34
1813.02
1656.82
1501.93
1352.43
1210.4
1077.12
953.886
839.807
731.353
633.835
548.573
476.71
418.874
374.862
343.456
322.527
309.479
301.822
297.557
295.279
294.111
293.53
293.249
293.115
293.052
293.023
293.01
293.005
293.002
293.001
293
293
293
293
293
293
293
293
293
293
293
293
293
293
293
293
293
293.001
293.003
293.006
293.013
293.028
293.06
293.128
293.268
293.548
294.092
295.113
296.963
300.183
305.544
314.036
326.767
344.758
368.707
398.779
434.607
475.517
520.702
569.409
621.016
675.06
731.283
789.373
848.872
909.867
972.123
1035.43
1099.82
1165.14
1231.23
1297.91
1364.98
1432.27
1499.58
1566.7
1633.44
1699.56
1764.82
1828.95
1891.62
1952.37
2010.49
2064.74
2111.31
2147.96
2168.12
2155.18
2080.23
1951.49
1800.82
1644.01
1488.94
1339.53
1197.81
1065.04
942.557
828.979
721.396
625.051
541.233
470.989
414.793
372.259
342.014
321.863
309.253
301.794
297.59
295.324
294.144
293.552
293.261
293.121
293.056
293.025
293.011
293.005
293.002
293.001
293
293
293
293
293
293
293
293
293
293
293
293
293
293
293
293
293.001
293.001
293.003
293.006
293.013
293.029
293.063
293.133
293.278
293.566
294.123
295.164
297.042
300.296
305.689
314.196
326.906
344.822
368.611
398.424
433.96
474.546
519.394
567.775
619.105
672.981
728.981
786.645
846.043
906.978
969.226
1032.58
1097.06
1162.54
1228.85
1295.79
1363.19
1430.84
1498.57
1566.15
1633.35
1699.94
1765.67
1830.27
1893.38
1954.5
2012.85
2067.12
2113.09
2150.2
2168.29
2151.22
2068.49
1935.97
1783.59
1626.24
1471.28
1322.42
1181.57
1049.99
928.931
816.406
710.407
615.881
534.012
465.693
411.226
370.084
340.831
321.299
309.028
301.729
297.591
295.338
294.157
293.561
293.267
293.125
293.057
293.026
293.012
293.005
293.002
293.001
293
293
293
293
293
293
293
293
293
293
293
293
293
293
293
293
293.001
293.001
293.003
293.006
293.014
293.03
293.065
293.137
293.284
293.577
294.142
295.195
297.087
300.356
305.759
314.264
326.944
344.787
368.459
398.12
433.446
473.804
518.433
566.629
617.814
671.375
726.974
784.543
843.877
904.781
967.038
1030.43
1095.01
1160.63
1227.12
1294.3
1361.99
1430
1498.12
1566.1
1633.73
1700.79
1767.01
1832.08
1895.63
1957.14
2015.78
2070.17
2115.89
2152.16
2168.2
2146.85
2056.26
1919.97
1765.99
1608.22
1453.57
1305.46
1165.68
1035.46
915.911
804.422
700.011
607.207
527.109
460.5
407.567
367.693
339.391
320.505
308.628
301.547
297.518
295.316
294.154
293.562
293.268
293.126
293.058
293.026
293.012
293.005
293.002
293.001
293
293
293
293
293
293
293
293
293
293
293
293
293
293
293
293
293.001
293.001
293.003
293.006
293.014
293.031
293.066
293.14
293.289
293.587
294.16
295.223
297.13
300.414
305.831
314.336
326.994
344.783
368.352
397.865
433.044
473.252
517.727
565.733
616.587
669.958
725.523
783.049
842.35
903.242
965.518
1028.97
1093.62
1159.37
1226.04
1293.45
1361.41
1429.71
1498.13
1566.48
1634.52
1701.99
1768.62
1834.1
1898.04
1959.87
2018.73
2073.14
2118.52
2153.92
2167.96
2142.53
2044.89
1905.27
1749.93
1591.9
1437.62
1290.27
1151.54
1022.64
904.471
793.882
690.938
599.691
521.168
456.06
404.46
365.673
338.179
319.835
308.286
301.387
297.449
295.289
294.145
293.56
293.268
293.126
293.058
293.027
293.012
293.005
293.002
293.001
293
293
293
293
293
293
293
293
293
293
293
293
293
293
293
293
293.001
293.001
293.003
293.007
293.014
293.031
293.067
293.141
293.293
293.593
294.169
295.238
297.15
300.442
305.862
314.364
327.004
344.751
368.262
397.721
432.81
472.893
517.206
565.014
615.791
669.092
724.598
782.082
841.359
902.252
964.554
1028.06
1092.8
1158.68
1225.51
1293.11
1361.27
1429.82
1498.53
1567.19
1635.56
1703.38
1770.36
1836.17
1900.41
1962.49
2021.5
2075.86
2120.84
2155.39
2167.56
2138.35
2034.83
1892.48
1736.08
1577.9
1424
1277.36
1139.57
1011.83
894.807
784.928
683.23
593.29
516.078
452.212
401.715
363.839
337.036
319.17
307.924
301.202
297.36
295.249
294.128
293.552
293.265
293.125
293.058
293.027
293.012
293.005
293.002
293.001
293
293
293
293
293
293
293
293
293
293
293
293
293
293
293
293
293.001
293.001
293.003
293.007
293.015
293.032
293.068
293.143
293.295
293.598
294.177
295.251
297.17
300.469
305.895
314.395
327.022
344.736
368.188
397.556
432.545
472.53
516.764
564.539
615.274
668.533
724.007
781.47
840.742
901.65
963.994
1027.56
1092.4
1158.38
1225.34
1293.09
1361.44
1430.2
1499.16
1568.08
1636.72
1704.82
1772.08
1838.17
1902.65
1964.93
2024.04
2078.27
2122.92
2156.61
2167
2134.28
2026.09
1881.63
1724.45
1566.23
1412.77
1266.67
1129.64
1002.86
886.766
777.42
676.755
587.896
511.768
448.935
399.362
362.255
336.04
318.585
307.602
301.034
297.277
295.21
294.111
293.545
293.262
293.124
293.058
293.026
293.012
293.005
293.002
293.001
293
293
293
293
293
293
293
293
293
293
293
293
293
293
293
293
293.001
293.001
293.003
293.007
293.015
293.032
293.068
293.144
293.297
293.601
294.182
295.258
297.181
300.483
305.911
314.411
327.03
344.729
368.154
397.483
432.424
472.359
516.546
564.278
614.976
668.208
723.665
781.124
840.407
901.342
963.728
1027.36
1092.26
1158.33
1225.41
1293.3
1361.81
1430.76
1499.91
1569.04
1637.91
1706.23
1773.71
1840.01
1904.67
1967.09
2026.25
2080.29
2124.6
2157.49
2166.22
2130.27
2018.56
1872.52
1714.77
1556.52
1403.3
1257.8
1121.46
995.483
880.131
771.181
671.359
583.383
508.142
446.157
397.348
360.881
335.161
318.057
307.303
300.873
297.195
295.17
294.092
293.536
293.258
293.122
293.057
293.026
293.012
293.005
293.002
293.001
293
293
293
293
293
293
293
293
293
293
293
293
293
293
293
293
293.001
293.001
293.003
293.007
293.015
293.032
293.069
293.144
293.298
293.603
294.186
295.265
297.191
300.496
305.927
314.428
327.044
344.734
368.143
397.45
432.365
472.273
516.432
564.14
614.821
668.041
723.495
780.96
840.26
901.222
963.645
1027.32
1092.29
1158.46
1225.63
1293.65
1362.3
1431.39
1500.71
1570.01
1639.04
1707.54
1775.19
1841.65
1906.45
1968.96
2028.14
2081.98
2125.95
2158.09
2165.3
2126.36
2012.1
1864.92
1706.79
1548.59
1395.64
1250.57
1114.77
989.441
874.665
766.002
666.866
579.609
505.094
443.808
395.633
359.702
334.4
317.595
307.038
300.729
297.12
295.132
294.074
293.528
293.254
293.12
293.056
293.026
293.012
293.005
293.002
293.001
293
293
293
293
293
293
293
293
293
293
293
293
293
293
293
293
293.001
293.001
293.003
293.007
293.015
293.032
293.069
293.145
293.299
293.604
294.188
295.269
297.197
300.505
305.939
314.441
327.056
344.742
368.143
397.44
432.343
472.237
516.383
564.081
614.756
667.975
723.433
780.908
840.225
901.214
963.677
1027.41
1092.45
1158.69
1225.96
1294.07
1362.84
1432.05
1501.49
1570.93
1640.1
1708.73
1776.52
1843.09
1907.99
1970.56
2029.74
2083.37
2127.02
2158.49
2164.32
2122.69
2006.58
1858.59
1700.22
1542.08
1389.38
1244.66
1109.3
984.488
870.162
761.71
663.129
576.457
502.537
441.825
394.175
358.692
333.742
317.192
306.805
300.6
297.052
295.098
294.057
293.519
293.251
293.119
293.055
293.025
293.012
293.005
293.002
293.001
293
293
293
293
293
293
293
293
293
293
293
293
293
293
293
293
293.001
293.001
293.003
293.007
293.015
293.032
293.069
293.145
293.3
293.606
294.191
295.272
297.202
300.513
305.949
314.454
327.071
344.756
368.154
397.445
432.341
472.23
516.372
564.067
614.742
667.966
723.434
780.927
840.269
901.292
963.796
1027.58
1092.67
1158.98
1226.32
1294.52
1363.38
1432.69
1502.24
1571.78
1641.06
1709.8
1777.68
1844.34
1909.31
1971.91
2031.08
2084.52
2127.89
2158.76
2163.39
2119.42
2001.93
1853.36
1694.82
1536.75
1384.25
1239.83
1104.81
980.423
866.45
758.152
660.021
573.826
500.393
440.155
392.941
357.832
333.178
316.844
306.601
300.487
296.991
295.067
294.041
293.512
293.247
293.117
293.055
293.025
293.011
293.005
293.002
293.001
293
293
293
293
293
293
293
293
293
293
293
293
293
293
293
293
293.001
293.001
293.003
293.007
293.015
293.032
293.069
293.145
293.3
293.607
294.192
295.275
297.207
300.519
305.959
314.467
327.087
344.774
368.174
397.466
432.362
472.25
516.394
564.093
614.774
668.009
723.491
781.004
840.371
901.424
963.964
1027.79
1092.94
1159.3
1226.71
1294.97
1363.9
1433.3
1502.92
1572.55
1641.91
1710.73
1778.69
1845.42
1910.44
1973.06
2032.2
2085.47
2128.6
2158.95
2162.57
2116.6
1998.06
1849.05
1690.4
1532.39
1380.06
1235.87
1101.14
977.087
863.39
755.205
657.44
571.634
498.599
438.752
391.9
357.102
332.697
316.545
306.425
300.388
296.938
295.039
294.027
293.505
293.244
293.116
293.054
293.025
293.011
293.005
293.002
293.001
293
293
293
293
293
293
293
293
293
293
293
293
293
293
293
293
293.001
293.001
293.003
293.007
293.015
293.032
293.069
293.146
293.301
293.607
294.193
295.277
297.21
300.525
305.967
314.479
327.103
344.795
368.2
397.496
432.397
472.289
516.438
564.145
614.836
668.082
723.58
781.112
840.502
901.583
964.156
1028.02
1093.21
1159.62
1227.08
1295.4
1364.39
1433.85
1503.54
1573.23
1642.66
1711.54
1779.55
1846.33
1911.38
1974.02
2033.14
2086.25
2129.17
2159.1
2161.86
2114.23
1994.88
1845.52
1686.78
1528.83
1376.63
1232.63
1098.13
974.354
860.874
752.773
655.304
569.814
497.105
437.58
391.026
356.487
332.29
316.291
306.274
300.303
296.892
295.015
294.015
293.499
293.241
293.114
293.053
293.025
293.011
293.005
293.002
293.001
293
293
293
293
293
293
293
293
293
293
293
293
293
293
293
293
293.001
293.001
293.003
293.007
293.015
293.032
293.069
293.146
293.301
293.608
294.195
295.279
297.214
300.53
305.975
314.491
327.12
344.817
368.228
397.531
432.438
472.338
516.494
564.21
614.911
668.17
723.684
781.233
840.645
901.75
964.351
1028.24
1093.47
1159.92
1227.42
1295.79
1364.83
1434.33
1504.08
1573.82
1643.3
1712.22
1780.28
1847.1
1912.18
1974.82
2033.91
2086.89
2129.65
2159.22
2161.28
2112.29
1992.28
1842.65
1683.84
1525.94
1373.86
1230.01
1095.69
972.128
858.818
750.778
653.548
568.314
495.871
436.608
390.299
355.975
331.949
316.077
306.148
300.231
296.853
294.994
294.005
293.494
293.238
293.113
293.053
293.024
293.011
293.005
293.002
293.001
293
293
293
293
293
293
293
293
293
293
293
293
293
293
293
293
293.001
293.001
293.003
293.007
293.015
293.032
293.069
293.146
293.301
293.608
294.195
295.281
297.216
300.535
305.983
314.502
327.136
344.839
368.256
397.566
432.481
472.388
516.554
564.278
614.99
668.262
723.789
781.355
840.785
901.911
964.535
1028.45
1093.71
1160.19
1227.73
1296.13
1365.21
1434.75
1504.54
1574.32
1643.83
1712.8
1780.89
1847.73
1912.83
1975.48
2034.55
2087.42
2130.03
2159.31
2160.81
2110.72
1990.18
1840.34
1681.49
1523.62
1371.62
1227.89
1093.72
970.333
857.156
749.162
652.123
567.094
494.864
435.813
389.703
355.553
331.668
315.9
306.042
300.171
296.82
294.977
293.996
293.49
293.236
293.112
293.052
293.024
293.011
293.005
293.002
293.001
293
293
293
293
293
293
293
293
293
293
293
293
293
293
293
293
293.001
293.001
293.003
293.007
293.015
293.032
293.069
293.146
293.301
293.609
294.196
295.282
297.219
300.539
305.989
314.512
327.15
344.859
368.282
397.599
432.521
472.437
516.61
564.344
615.066
668.348
723.888
781.468
840.914
902.057
964.701
1028.64
1093.92
1160.43
1227.99
1296.42
1365.53
1435.11
1504.92
1574.73
1644.28
1713.27
1781.38
1848.24
1913.35
1976
2035.05
2087.84
2130.33
2159.39
2160.43
2109.47
1988.53
1838.52
1679.63
1521.78
1369.86
1226.22
1092.17
968.911
855.837
747.882
650.994
566.126
494.063
435.178
389.225
355.213
331.441
315.757
305.957
300.122
296.793
294.963
293.989
293.486
293.235
293.111
293.052
293.024
293.011
293.005
293.002
293.001
293
293
293
293
293
293
293
293
293
293
293
293
293
293
293
293
293.001
293.001
293.003
293.007
293.015
293.032
293.069
293.146
293.302
293.609
294.197
295.283
297.221
300.542
305.994
314.52
327.162
344.876
368.305
397.629
432.557
472.48
516.661
564.402
615.132
668.423
723.973
781.564
841.023
902.181
964.839
1028.8
1094.09
1160.62
1228.2
1296.66
1365.79
1435.39
1505.22
1575.06
1644.62
1713.63
1781.77
1848.64
1913.76
1976.41
2035.44
2088.16
2130.57
2159.44
2160.14
2108.52
1987.27
1837.13
1678.2
1520.38
1368.51
1224.94
1090.97
967.81
854.808
746.926
650.143
565.391
493.451
434.691
388.857
354.95
331.264
315.645
305.889
300.084
296.772
294.952
293.983
293.483
293.233
293.111
293.052
293.024
293.011
293.005
293.002
293.001
293
293
293
293
293
293
293
293
293
293
293
293
293
293
293
293
293.001
293.001
293.003
293.007
293.015
293.032
293.069
293.146
293.302
293.609
294.197
295.284
297.222
300.545
305.998
314.526
327.172
344.89
368.324
397.652
432.586
472.514
516.701
564.448
615.185
668.483
724.041
781.641
841.109
902.277
964.947
1028.92
1094.23
1160.77
1228.37
1296.84
1365.98
1435.6
1505.45
1575.3
1644.88
1713.91
1782.05
1848.93
1914.06
1976.7
2035.73
2088.39
2130.74
2159.49
2159.94
2107.83
1986.35
1836.12
1677.17
1519.36
1367.52
1224.01
1090.09
967.009
854.06
746.243
649.533
564.864
493.013
434.341
388.591
354.759
331.135
315.562
305.839
300.055
296.756
294.943
293.978
293.481
293.232
293.11
293.051
293.024
293.011
293.005
293.002
293.001
293
293
293
293
293
293
293
293
293
293
293
293
293
293
293
293
293.001
293.001
293.003
293.007
293.015
293.032
293.069
293.146
293.302
293.609
294.198
295.285
297.223
300.546
306.001
314.531
327.178
344.899
368.336
397.668
432.606
472.538
516.728
564.48
615.221
668.524
724.087
781.693
841.168
902.343
965.02
1029
1094.32
1160.87
1228.48
1296.96
1366.11
1435.74
1505.6
1575.46
1645.05
1714.09
1782.24
1849.13
1914.25
1976.9
2035.91
2088.55
2130.85
2159.51
2159.8
2107.38
1985.75
1835.46
1676.5
1518.7
1366.89
1223.4
1089.53
966.49
853.574
745.801
649.141
564.527
492.732
434.118
388.423
354.638
331.051
315.508
305.805
300.035
296.745
294.937
293.975
293.48
293.231
293.11
293.051
293.024
293.011
293.005
293.002
293.001
293
293
293
293
293
293
293
293
293
293
293
293
293
293
293
293
293.001
293.001
293.003
293.007
293.015
293.032
293.069
293.146
293.302
293.61
294.198
295.285
297.223
300.547
306.002
314.533
327.181
344.903
368.342
397.676
432.615
472.549
516.742
564.495
615.239
668.545
724.11
781.719
841.197
902.375
965.056
1029.04
1094.36
1160.92
1228.53
1297.02
1366.18
1435.81
1505.68
1575.54
1645.14
1714.17
1782.33
1849.22
1914.35
1976.99
2036
2088.62
2130.9
2159.53
2159.74
2107.16
1985.46
1835.14
1676.17
1518.38
1366.58
1223.11
1089.25
966.239
853.341
745.59
648.954
564.366
492.6
434.014
388.344
354.582
331.013
315.482
305.789
300.026
296.74
294.934
293.974
293.479
293.231
293.11
293.051
293.024
293.011
293.005
293.002
293.001
293
293
293
293
293
293
293
293
293
293
293
293
293
293
293
293
293.001
293.001
293.003
293.007
293.015
293.032
293.069
293.146
293.302
293.61
294.198
295.285
297.223
300.547
306.002
314.533
327.181
344.903
368.342
397.676
432.615
472.549
516.742
564.495
615.239
668.545
724.11
781.719
841.197
902.375
965.056
1029.04
1094.36
1160.92
1228.53
1297.02
1366.18
1435.81
1505.68
1575.54
1645.14
1714.17
1782.33
1849.22
1914.35
1976.99
2036
2088.62
2130.9
2159.53
2159.73
2107.16
1985.46
1835.14
1676.17
1518.38
1366.58
1223.11
1089.25
966.239
853.341
745.589
648.954
564.366
492.6
434.013
388.344
354.582
331.013
315.482
305.789
300.026
296.74
294.934
293.974
293.479
293.231
293.11
293.051
293.024
293.011
293.005
293.002
293.001
293
293
293
293
293
293
293
293
293
293
293
293
293
293
293
293
293.001
293.001
293.003
293.007
293.015
293.032
293.069
293.146
293.302
293.609
294.198
295.285
297.223
300.546
306.001
314.531
327.178
344.899
368.336
397.668
432.606
472.538
516.728
564.48
615.221
668.524
724.087
781.693
841.168
902.343
965.02
1029
1094.32
1160.87
1228.48
1296.96
1366.11
1435.74
1505.6
1575.46
1645.05
1714.09
1782.24
1849.13
1914.25
1976.9
2035.91
2088.55
2130.85
2159.51
2159.8
2107.38
1985.75
1835.46
1676.5
1518.7
1366.89
1223.4
1089.53
966.489
853.574
745.801
649.141
564.526
492.732
434.118
388.422
354.638
331.051
315.507
305.805
300.035
296.745
294.937
293.975
293.48
293.231
293.11
293.051
293.024
293.011
293.005
293.002
293.001
293
293
293
293
293
293
293
293
293
293
293
293
293
293
293
293
293.001
293.001
293.003
293.007
293.015
293.032
293.069
293.146
293.302
293.609
294.197
295.284
297.222
300.545
305.998
314.526
327.172
344.889
368.323
397.652
432.586
472.514
516.7
564.448
615.184
668.483
724.041
781.64
841.109
902.277
964.947
1028.92
1094.23
1160.77
1228.37
1296.84
1365.98
1435.6
1505.45
1575.3
1644.88
1713.91
1782.05
1848.93
1914.06
1976.7
2035.73
2088.39
2130.74
2159.49
2159.94
2107.83
1986.35
1836.12
1677.17
1519.36
1367.52
1224
1090.09
967.008
854.058
746.241
649.532
564.863
493.012
434.34
388.591
354.759
331.134
315.562
305.839
300.054
296.756
294.943
293.978
293.481
293.232
293.11
293.051
293.024
293.011
293.005
293.002
293.001
293
293
293
293
293
293
293
293
293
293
293
293
293
293
293
293
293.001
293.001
293.003
293.007
293.015
293.032
293.069
293.146
293.301
293.609
294.197
295.283
297.221
300.542
305.994
314.52
327.162
344.876
368.305
397.628
432.557
472.48
516.66
564.401
615.132
668.423
723.973
781.564
841.023
902.181
964.839
1028.8
1094.09
1160.62
1228.2
1296.66
1365.79
1435.39
1505.22
1575.06
1644.62
1713.63
1781.77
1848.64
1913.76
1976.41
2035.44
2088.16
2130.57
2159.44
2160.14
2108.52
1987.26
1837.13
1678.2
1520.38
1368.5
1224.94
1090.96
967.808
854.807
746.925
650.141
565.389
493.45
434.69
388.856
354.95
331.264
315.645
305.889
300.084
296.772
294.951
293.983
293.483
293.233
293.111
293.052
293.024
293.011
293.005
293.002
293.001
293
293
293
293
293
293
293
293
293
293
293
293
293
293
293
293
293.001
293.001
293.003
293.007
293.015
293.032
293.069
293.146
293.301
293.609
294.196
295.282
297.219
300.539
305.989
314.512
327.15
344.859
368.282
397.599
432.521
472.437
516.61
564.344
615.065
668.348
723.887
781.467
840.913
902.057
964.7
1028.64
1093.92
1160.43
1227.99
1296.42
1365.53
1435.11
1504.92
1574.73
1644.28
1713.27
1781.38
1848.24
1913.35
1976
2035.05
2087.84
2130.33
2159.38
2160.43
2109.47
1988.53
1838.52
1679.62
1521.78
1369.86
1226.22
1092.16
968.908
855.835
747.88
650.992
566.124
494.061
435.176
389.224
355.213
331.441
315.757
305.957
300.122
296.793
294.963
293.989
293.486
293.235
293.111
293.052
293.024
293.011
293.005
293.002
293.001
293
293
293
293
293
293
293
293
293
293
293
293
293
293
293
293
293.001
293.001
293.003
293.007
293.015
293.032
293.069
293.146
293.301
293.608
294.195
295.281
297.216
300.535
305.982
314.502
327.135
344.839
368.256
397.566
432.48
472.388
516.553
564.278
614.99
668.261
723.789
781.354
840.785
901.911
964.535
1028.45
1093.71
1160.19
1227.73
1296.13
1365.21
1434.75
1504.54
1574.32
1643.83
1712.8
1780.89
1847.73
1912.83
1975.48
2034.54
2087.42
2130.03
2159.31
2160.8
2110.71
1990.18
1840.34
1681.48
1523.61
1371.62
1227.89
1093.72
970.33
857.153
749.159
652.121
567.092
494.862
435.811
389.702
355.552
331.668
315.9
306.042
300.171
296.82
294.977
293.996
293.49
293.236
293.112
293.052
293.024
293.011
293.005
293.002
293.001
293
293
293
293
293
293
293
293
293
293
293
293
293
293
293
293
293.001
293.001
293.003
293.007
293.015
293.032
293.069
293.146
293.301
293.608
294.195
295.279
297.214
300.53
305.975
314.491
327.12
344.817
368.228
397.53
432.437
472.337
516.494
564.209
614.911
668.17
723.683
781.233
840.645
901.749
964.35
1028.24
1093.47
1159.92
1227.42
1295.79
1364.83
1434.33
1504.08
1573.82
1643.29
1712.22
1780.28
1847.1
1912.18
1974.82
2033.91
2086.89
2129.64
2159.22
2161.28
2112.28
1992.27
1842.65
1683.84
1525.93
1373.85
1230
1095.69
972.124
858.814
750.775
653.545
568.312
495.869
436.606
390.298
355.974
331.949
316.077
306.147
300.231
296.853
294.994
294.005
293.494
293.238
293.113
293.053
293.024
293.011
293.005
293.002
293.001
293
293
293
293
293
293
293
293
293
293
293
293
293
293
293
293
293.001
293.001
293.003
293.007
293.015
293.032
293.069
293.146
293.301
293.607
294.193
295.277
297.21
300.525
305.967
314.479
327.103
344.795
368.199
397.496
432.396
472.289
516.438
564.144
614.835
668.082
723.58
781.111
840.502
901.582
964.155
1028.02
1093.21
1159.62
1227.08
1295.4
1364.39
1433.85
1503.54
1573.23
1642.66
1711.54
1779.55
1846.33
1911.38
1974.02
2033.14
2086.25
2129.17
2159.1
2161.86
2114.23
1994.87
1845.51
1686.77
1528.82
1376.63
1232.63
1098.13
974.35
860.87
752.769
655.301
569.811
497.103
437.578
391.024
356.486
332.289
316.29
306.274
300.303
296.892
295.015
294.015
293.499
293.241
293.114
293.053
293.025
293.011
293.005
293.002
293.001
293
293
293
293
293
293
293
293
293
293
293
293
293
293
293
293
293.001
293.001
293.003
293.007
293.015
293.032
293.069
293.145
293.3
293.607
294.192
295.275
297.207
300.519
305.958
314.467
327.086
344.774
368.174
397.466
432.362
472.25
516.393
564.092
614.774
668.008
723.491
781.003
840.37
901.423
963.964
1027.79
1092.93
1159.3
1226.71
1294.97
1363.9
1433.3
1502.92
1572.55
1641.91
1710.73
1778.69
1845.42
1910.44
1973.06
2032.2
2085.46
2128.59
2158.95
2162.56
2116.59
1998.06
1849.04
1690.39
1532.38
1380.05
1235.86
1101.13
977.082
863.385
755.201
657.437
571.631
498.596
438.75
391.898
357.101
332.696
316.544
306.425
300.388
296.938
295.039
294.027
293.505
293.244
293.116
293.054
293.025
293.011
293.005
293.002
293.001
293
293
293
293
293
293
293
293
293
293
293
293
293
293
293
293
293.001
293.001
293.003
293.007
293.015
293.032
293.069
293.145
293.3
293.606
294.191
295.272
297.202
300.513
305.949
314.454
327.071
344.756
368.154
397.445
432.341
472.229
516.371
564.067
614.742
667.966
723.433
780.926
840.269
901.291
963.795
1027.58
1092.67
1158.98
1226.32
1294.52
1363.38
1432.69
1502.24
1571.78
1641.06
1709.8
1777.68
1844.34
1909.31
1971.91
2031.08
2084.51
2127.89
2158.76
2163.39
2119.41
2001.92
1853.35
1694.81
1536.74
1384.24
1239.82
1104.81
980.417
866.445
758.147
660.017
573.823
500.39
440.153
392.939
357.83
333.177
316.843
306.601
300.487
296.991
295.066
294.041
293.512
293.247
293.117
293.055
293.025
293.011
293.005
293.002
293.001
293
293
293
293
293
293
293
293
293
293
293
293
293
293
293
293
293.001
293.001
293.003
293.007
293.015
293.032
293.069
293.145
293.299
293.604
294.188
295.269
297.197
300.505
305.938
314.441
327.056
344.742
368.143
397.44
432.342
472.236
516.383
564.081
614.755
667.975
723.433
780.908
840.225
901.213
963.677
1027.41
1092.45
1158.69
1225.96
1294.07
1362.84
1432.05
1501.49
1570.93
1640.1
1708.73
1776.52
1843.09
1907.99
1970.55
2029.74
2083.37
2127.02
2158.49
2164.32
2122.69
2006.57
1858.59
1700.21
1542.07
1389.37
1244.66
1109.29
984.482
870.157
761.705
663.125
576.453
502.534
441.823
394.173
358.69
333.741
317.191
306.804
300.6
297.052
295.098
294.057
293.519
293.25
293.119
293.055
293.025
293.012
293.005
293.002
293.001
293
293
293
293
293
293
293
293
293
293
293
293
293
293
293
293
293.001
293.001
293.003
293.007
293.015
293.032
293.069
293.144
293.298
293.603
294.186
295.265
297.191
300.496
305.927
314.428
327.044
344.734
368.143
397.45
432.365
472.272
516.431
564.14
614.82
668.041
723.494
780.96
840.26
901.222
963.644
1027.32
1092.29
1158.46
1225.63
1293.65
1362.3
1431.39
1500.71
1570.01
1639.04
1707.54
1775.19
1841.65
1906.45
1968.95
2028.14
2081.97
2125.95
2158.09
2165.29
2126.35
2012.09
1864.91
1706.78
1548.58
1395.63
1250.57
1114.77
989.434
874.659
765.997
666.861
579.604
505.091
443.805
395.63
359.7
334.399
317.595
307.038
300.729
297.12
295.132
294.074
293.528
293.254
293.12
293.056
293.026
293.012
293.005
293.002
293.001
293
293
293
293
293
293
293
293
293
293
293
293
293
293
293
293
293.001
293.001
293.003
293.007
293.015
293.032
293.068
293.144
293.297
293.601
294.182
295.258
297.181
300.483
305.911
314.411
327.03
344.729
368.153
397.482
432.423
472.359
516.545
564.277
614.976
668.208
723.664
781.123
840.407
901.341
963.727
1027.36
1092.26
1158.33
1225.41
1293.3
1361.81
1430.76
1499.91
1569.04
1637.91
1706.23
1773.71
1840
1904.67
1967.08
2026.25
2080.29
2124.6
2157.49
2166.22
2130.26
2018.56
1872.51
1714.76
1556.52
1403.3
1257.8
1121.46
995.476
880.125
771.174
671.353
583.378
508.138
446.154
397.346
360.879
335.16
318.056
307.302
300.873
297.195
295.17
294.092
293.536
293.258
293.122
293.057
293.026
293.012
293.005
293.002
293.001
293
293
293
293
293
293
293
293
293
293
293
293
293
293
293
293
293.001
293.001
293.003
293.007
293.015
293.032
293.068
293.143
293.295
293.598
294.177
295.251
297.17
300.469
305.895
314.395
327.021
344.735
368.187
397.556
432.544
472.53
516.763
564.538
615.273
668.533
724.006
781.469
840.742
901.65
963.993
1027.56
1092.4
1158.38
1225.34
1293.09
1361.44
1430.2
1499.16
1568.08
1636.72
1704.82
1772.08
1838.17
1902.65
1964.93
2024.04
2078.27
2122.92
2156.61
2166.99
2134.27
2026.08
1881.62
1724.44
1566.21
1412.69
1266.65
1129.64
1002.85
886.761
777.414
676.749
587.89
511.763
448.931
399.36
362.253
336.038
318.584
307.601
301.033
297.277
295.21
294.111
293.545
293.262
293.124
293.058
293.026
293.012
293.005
293.002
293.001
293
293
293
293
293
293
293
293
293
293
293
293
293
293
293
293
293.001
293.001
293.003
293.007
293.014
293.031
293.067
293.141
293.293
293.593
294.169
295.238
297.15
300.442
305.862
314.364
327.003
344.751
368.262
397.721
432.809
472.893
517.206
565.014
615.791
669.091
724.598
782.082
841.359
902.251
964.554
1028.06
1092.8
1158.68
1225.51
1293.11
1361.27
1429.82
1498.53
1567.19
1635.56
1703.38
1770.36
1836.17
1900.41
1962.49
2021.5
2075.85
2120.84
2155.39
2167.56
2138.34
2034.82
1892.47
1736.07
1577.89
1423.99
1277.36
1139.57
1011.82
894.8
784.92
683.223
593.284
516.073
452.208
401.712
363.837
337.034
319.169
307.924
301.201
297.36
295.249
294.128
293.552
293.265
293.125
293.058
293.027
293.012
293.005
293.002
293.001
293
293
293
293
293
293
293
293
293
293
293
293
293
293
293
293
293.001
293.001
293.003
293.006
293.014
293.031
293.066
293.14
293.289
293.587
294.16
295.223
297.13
300.414
305.83
314.336
326.994
344.783
368.351
397.865
433.044
473.251
517.726
565.733
616.586
669.957
725.522
783.049
842.349
903.241
965.517
1028.97
1093.62
1159.37
1226.04
1293.45
1361.41
1429.71
1498.13
1566.48
1634.52
1701.99
1768.62
1834.1
1898.04
1959.87
2018.73
2073.14
2118.52
2153.91
2167.95
2142.52
2044.88
1905.26
1749.92
1591.89
1437.6
1290.26
1151.53
1022.63
904.462
793.874
690.93
599.684
521.163
456.056
404.456
365.67
338.177
319.834
308.286
301.386
297.449
295.289
294.145
293.559
293.268
293.126
293.058
293.027
293.012
293.005
293.002
293.001
293
293
293
293
293
293
293
293
293
293
293
293
293
293
293
293
293.001
293.001
293.003
293.006
293.014
293.03
293.065
293.137
293.284
293.577
294.142
295.195
297.087
300.356
305.759
314.264
326.944
344.787
368.459
398.12
433.445
473.804
518.432
566.628
617.814
671.375
726.974
784.543
843.876
904.78
967.037
1030.43
1095.01
1160.63
1227.12
1294.3
1361.99
1430
1498.12
1566.1
1633.73
1700.79
1767.01
1832.07
1895.63
1957.13
2015.78
2070.16
2115.89
2152.16
2168.2
2146.85
2056.25
1919.95
1765.97
1608.21
1453.56
1305.45
1165.66
1035.45
915.902
804.412
700.003
607.2
527.103
460.495
407.563
367.69
339.389
320.504
308.627
301.547
297.518
295.316
294.154
293.562
293.268
293.126
293.058
293.026
293.012
293.005
293.002
293.001
293
293
293
293
293
293
293
293
293
293
293
293
293
293
293
293
293.001
293.001
293.003
293.006
293.013
293.029
293.063
293.133
293.278
293.566
294.123
295.164
297.042
300.296
305.689
314.196
326.906
344.821
368.61
398.423
433.96
474.545
519.393
567.774
619.104
672.98
728.98
786.644
846.042
906.977
969.225
1032.57
1097.06
1162.54
1228.85
1295.79
1363.19
1430.84
1498.57
1566.15
1633.35
1699.94
1765.67
1830.27
1893.38
1954.5
2012.85
2067.12
2113.09
2150.2
2168.29
2151.21
2068.47
1935.95
1783.58
1626.22
1471.27
1322.41
1181.56
1049.98
928.92
816.396
710.398
615.873
534.006
465.688
411.222
370.081
340.829
321.298
309.027
301.729
297.59
295.338
294.157
293.561
293.267
293.125
293.057
293.026
293.012
293.005
293.002
293.001
293
293
293
293
293
293
293
293
293
293
293
293
293
293
293
293
293
293.001
293.003
293.006
293.013
293.028
293.06
293.128
293.268
293.548
294.092
295.113
296.963
300.183
305.544
314.035
326.766
344.757
368.706
398.778
434.606
475.516
520.701
569.408
621.015
675.059
731.282
789.373
848.871
909.866
972.122
1035.43
1099.81
1165.14
1231.23
1297.91
1364.98
1432.27
1499.58
1566.7
1633.44
1699.56
1764.82
1828.95
1891.62
1952.37
2010.48
2064.74
2111.31
2147.96
2168.12
2155.17
2080.22
1951.48
1800.8
1643.99
1488.92
1339.52
1197.79
1065.03
942.545
828.967
721.386
625.043
541.225
470.983
414.788
372.256
342.012
321.862
309.252
301.793
297.59
295.324
294.144
293.552
293.261
293.121
293.056
293.025
293.011
293.005
293.002
293.001
293
293
293
293
293
293
293
293
293
293
293
293
293
293
293
293
293
293.001
293.002
293.005
293.012
293.026
293.056
293.12
293.251
293.515
294.034
295.017
296.814
299.974
305.282
313.76
326.555
344.716
368.926
399.368
435.657
477.037
522.645
571.687
623.521
677.682
733.874
791.963
851.778
912.898
975.149
1038.37
1102.6
1167.73
1233.57
1299.96
1366.73
1433.68
1500.64
1567.4
1633.76
1699.51
1764.4
1828.18
1890.52
1950.97
2008.85
2062.96
2109.77
2146.8
2168.17
2157.93
2088.32
1962.32
1813
1656.8
1501.91
1352.41
1210.39
1077.11
953.873
839.794
731.342
633.826
548.564
476.703
418.869
374.859
343.454
322.525
309.478
301.822
297.557
295.279
294.11
293.53
293.249
293.115
293.052
293.023
293.01
293.005
293.002
293.001
293
293
293
293
293
293
293
293
293
293
293
)
;

boundaryField
{
    fuel
    {
        type            fixedValue;
        value           uniform 293;
    }
    air
    {
        type            fixedValue;
        value           uniform 293;
    }
    outlet
    {