/*--------------------------------*- C++ -*----------------------------------*\
  =========                 |
  \\      /  F ield         | OpenFOAM: The Open Source CFD Toolbox
   \\    /   O peration     | Website:  https://openfoam.org
    \\  /    A nd           | Version:  10
     \\/     M anipulation  |
\*---------------------------------------------------------------------------*/
FoamFile
{
    format      ascii;
    class       volVectorField;
    location    "1";
    object      U;
}
// * * * * * * * * * * * * * * * * * * * * * * * * * * * * * * * * * * * * * //

dimensions      [0 1 -1 0 0 0 0];

internalField   nonuniform List<vector> 
4000
(
(0.0999814 -0.00563342 0)
(0.0998387 -0.0168454 0)
(0.0995911 -0.028034 0)
(0.0992304 -0.0392268 0)
(0.0987464 -0.0504414 0)
(0.0981229 -0.0616849 0)
(0.097339 -0.0729549 0)
(0.0963708 -0.0842401 0)
(0.0951922 -0.0955205 0)
(0.0937751 -0.106768 0)
(0.0920904 -0.117946 0)
(0.0901097 -0.129015 0)
(0.0878096 -0.139922 0)
(0.0851826 -0.150574 0)
(0.0822524 -0.160971 0)
(0.0790411 -0.171099 0)
(0.0755841 -0.18095 0)
(0.0719413 -0.190544 0)
(0.0682008 -0.199944 0)
(0.0644732 -0.209276 0)
(0.0608734 -0.218722 0)
(0.0574883 -0.228502 0)
(0.0543404 -0.238808 0)
(0.0513639 -0.249743 0)
(0.0484138 -0.261277 0)
(0.0453029 -0.273258 0)
(0.0418489 -0.285459 0)
(0.0379143 -0.297628 0)
(0.0334218 -0.309526 0)
(0.0283491 -0.320943 0)
(0.0227127 -0.331699 0)
(0.0165526 -0.341652 0)
(0.00992737 -0.35068 0)
(0.00292015 -0.358666 0)
(-0.00437139 -0.365568 0)
(-0.0118909 -0.371362 0)
(-0.0196049 -0.376043 0)
(-0.027461 -0.37962 0)
(-0.035414 -0.382114 0)
(-0.0434234 -0.383562 0)
(-0.0514512 -0.384012 0)
(-0.0594621 -0.383522 0)
(-0.0674227 -0.382161 0)
(-0.0753019 -0.380003 0)
(-0.0830701 -0.377128 0)
(-0.0906998 -0.373624 0)
(-0.0981644 -0.369583 0)
(-0.105438 -0.365106 0)
(-0.112497 -0.360298 0)
(-0.119317 -0.355281 0)
(-0.125873 -0.35019 0)
(-0.132128 -0.34518 0)
(-0.138018 -0.340432 0)
(-0.143454 -0.336138 0)
(-0.148291 -0.332525 0)
(-0.152079 -0.32981 0)
(-0.153642 -0.327997 0)
(-0.151908 -0.3262 0)
(-0.146957 -0.323365 0)
(-0.140164 -0.318876 0)
(-0.132699 -0.312749 0)
(-0.125089 -0.305232 0)
(-0.117539 -0.296582 0)
(-0.110165 -0.287023 0)
(-0.103075 -0.27676 0)
(-0.0963165 -0.266004 0)
(-0.0897677 -0.254912 0)
(-0.0833908 -0.243488 0)
(-0.0774368 -0.231761 0)
(-0.072206 -0.220006 0)
(-0.0679586 -0.208573 0)
(-0.0649413 -0.197803 0)
(-0.063315 -0.187968 0)
(-0.063083 -0.179178 0)
(-0.0640851 -0.171338 0)
(-0.0660511 -0.164204 0)
(-0.0686683 -0.157496 0)
(-0.0716403 -0.150979 0)
(-0.0747286 -0.144499 0)
(-0.0777668 -0.137972 0)
(-0.0806522 -0.131362 0)
(-0.0833286 -0.124661 0)
(-0.0857675 -0.117867 0)
(-0.0879469 -0.110971 0)
(-0.0898688 -0.104019 0)
(-0.0915501 -0.0970449 0)
(-0.0930117 -0.09007 0)
(-0.0942749 -0.0831112 0)
(-0.0953601 -0.0761832 0)
(-0.0962865 -0.069298 0)
(-0.0970717 -0.0624645 0)
(-0.0977321 -0.0556882 0)
(-0.0982827 -0.0489718 0)
(-0.0987368 -0.0423147 0)
(-0.0991064 -0.0357138 0)
(-0.0994022 -0.0291629 0)
(-0.0996329 -0.0226535 0)
(-0.0998055 -0.0161742 0)
(-0.0999239 -0.00971031 0)
(-0.0999917 -0.00324377 0)
(0.0999998 -0.00538275 0)
(0.0998727 -0.0161309 0)
(0.0996053 -0.0268533 0)
(0.0991757 -0.0375462 0)
(0.0985768 -0.0482027 0)
(0.0977985 -0.0588111 0)
(0.0968249 -0.0693536 0)
(0.0956379 -0.0798063 0)
(0.0942195 -0.0901393 0)
(0.0925529 -0.100318 0)
(0.0906247 -0.110303 0)
(0.0884257 -0.120057 0)
(0.0859527 -0.129564 0)
(0.0832219 -0.138873 0)
(0.0802432 -0.14793 0)
(0.077042 -0.156702 0)
(0.0736604 -0.165185 0)
(0.0701631 -0.173406 0)
(0.0666393 -0.181443 0)
(0.0631961 -0.189428 0)
(0.0599396 -0.197556 0)
(0.0569448 -0.20605 0)
(0.0542236 -0.215118 0)
(0.0517023 -0.224883 0)
(0.049228 -0.235343 0)
(0.0466018 -0.246375 0)
(0.0436279 -0.257769 0)
(0.040155 -0.26928 0)
(0.0360926 -0.280665 0)
(0.0314065 -0.291705 0)
(0.0261038 -0.302218 0)
(0.0202226 -0.312057 0)
(0.0138259 -0.321117 0)
(0.00698221 -0.329346 0)
(-0.000235023 -0.336656 0)
(-0.00776055 -0.342989 0)
(-0.0155418 -0.348307 0)
(-0.0235262 -0.352609 0)
(-0.0316616 -0.355908 0)
(-0.0399006 -0.358233 0)
(-0.0481999 -0.359623 0)
(-0.0565196 -0.36013 0)
(-0.0648234 -0.35981 0)
(-0.0730779 -0.35873 0)
(-0.0812528 -0.35696 0)
(-0.0893202 -0.354577 0)
(-0.0972544 -0.351662 0)
(-0.105033 -0.348303 0)
(-0.112637 -0.344589 0)
(-0.120051 -0.340615 0)
(-0.127259 -0.33648 0)
(-0.134237 -0.332281 0)
(-0.140929 -0.328109 0)
(-0.147258 -0.324042 0)
(-0.153088 -0.320131 0)
(-0.157836 -0.316362 0)
(-0.160075 -0.312551 0)
(-0.158374 -0.308298 0)
(-0.153014 -0.303202 0)
(-0.145679 -0.297068 0)
(-0.137705 -0.289862 0)
(-0.129647 -0.281634 0)
(-0.121692 -0.272481 0)
(-0.113936 -0.26252 0)
(-0.106474 -0.251885 0)
(-0.0993161 -0.240731 0)
(-0.0922816 -0.229209 0)
(-0.0853322 -0.217497 0)
(-0.0787822 -0.205896 0)
(-0.0729996 -0.194671 0)
(-0.0682762 -0.184098 0)
(-0.0648589 -0.174452 0)
(-0.062886 -0.16591 0)
(-0.0623293 -0.158485 0)
(-0.0630073 -0.152012 0)
(-0.0646501 -0.146219 0)
(-0.0669632 -0.140815 0)
(-0.0696727 -0.135565 0)
(-0.0725563 -0.130312 0)
(-0.0754539 -0.12497 0)
(-0.0782629 -0.119503 0)
(-0.0809232 -0.113907 0)
(-0.0834028 -0.108198 0)
(-0.0856902 -0.10241 0)
(-0.0877728 -0.0965145 0)
(-0.0896498 -0.090507 0)
(-0.0913273 -0.0844067 0)
(-0.0928141 -0.078235 0)
(-0.0941211 -0.0720119 0)
(-0.0952603 -0.0657545 0)
(-0.0962445 -0.0594772 0)
(-0.0970868 -0.0531914 0)
(-0.0977996 -0.0469059 0)
(-0.0983949 -0.0406265 0)
(-0.0988836 -0.0343567 0)
(-0.0992756 -0.0280975 0)
(-0.0995785 -0.0218479 0)
(-0.0997969 -0.0156051 0)
(-0.0999337 -0.00936487 0)
(-0.0999994 -0.00312275 0)
(0.0999867 -0.0051983 0)
(0.0998037 -0.0155689 0)
(0.0994448 -0.0259064 0)
(0.0988936 -0.0362033 0)
(0.0981464 -0.0464494 0)
(0.097197 -0.0566321 0)
(0.0960362 -0.066736 0)
(0.0946542 -0.076743 0)
(0.0930424 -0.0866325 0)
(0.0911946 -0.0963823 0)
(0.0891077 -0.105969 0)
(0.0867826 -0.115366 0)
(0.0842246 -0.124546 0)
(0.0814364 -0.133473 0)
(0.0784253 -0.14212 0)
(0.0752154 -0.150471 0)
(0.0718516 -0.15853 0)
(0.068402 -0.166332 0)
(0.0649578 -0.17395 0)
(0.0616259 -0.181514 0)
(0.0585104 -0.189206 0)
(0.0556852 -0.197236 0)
(0.0531621 -0.205796 0)
(0.0508707 -0.215003 0)
(0.0486611 -0.224863 0)
(0.046336 -0.235269 0)
(0.0436962 -0.246035 0)
(0.040582 -0.256939 0)
(0.0368928 -0.267757 0)
(0.0325861 -0.278285 0)
(0.0276677 -0.288345 0)
(0.0221769 -0.297789 0)
(0.0161629 -0.306503 0)
(0.00966769 -0.314407 0)
(0.00273445 -0.321446 0)
(-0.00456908 -0.327589 0)
(-0.0121882 -0.332814 0)
(-0.020081 -0.337119 0)
(-0.0281937 -0.340515 0)
(-0.0364791 -0.343021 0)
(-0.0448947 -0.344669 0)
(-0.0534021 -0.345499 0)
(-0.0619663 -0.34556 0)
(-0.0705557 -0.344906 0)
(-0.0791412 -0.343596 0)
(-0.087697 -0.341694 0)
(-0.0962015 -0.339268 0)
(-0.104638 -0.336388 0)
(-0.112991 -0.333127 0)
(-0.121253 -0.329557 0)
(-0.129409 -0.325747 0)
(-0.137433 -0.321761 0)
(-0.145254 -0.317652 0)
(-0.152781 -0.313455 0)
(-0.159794 -0.309179 0)
(-0.165495 -0.304771 0)
(-0.168163 -0.300067 0)
(-0.166285 -0.294785 0)
(-0.160383 -0.288731 0)
(-0.152371 -0.281859 0)
(-0.143667 -0.274174 0)
(-0.134873 -0.265715 0)
(-0.1262 -0.25655 0)
(-0.117755 -0.246779 0)
(-0.109627 -0.236524 0)
(-0.101791 -0.225926 0)
(-0.0940425 -0.21512 0)
(-0.0863839 -0.204259 0)
(-0.0791964 -0.193556 0)
(-0.0728871 -0.18326 0)
(-0.0677573 -0.173631 0)
(-0.0640364 -0.164888 0)
(-0.0618301 -0.157155 0)
(-0.0610789 -0.150415 0)
(-0.0615819 -0.144507 0)
(-0.0630646 -0.139186 0)
(-0.0652365 -0.134193 0)
(-0.0678305 -0.129322 0)
(-0.0706286 -0.124431 0)
(-0.0734717 -0.11944 0)
(-0.0762546 -0.114313 0)
(-0.0789136 -0.109041 0)
(-0.0814159 -0.103629 0)
(-0.0837491 -0.0980936 0)
(-0.0859101 -0.0924542 0)
(-0.0878958 -0.0867281 0)
(-0.089706 -0.080929 0)
(-0.0913432 -0.0750694 0)
(-0.0928124 -0.0691611 0)
(-0.0941201 -0.0632145 0)
(-0.0952739 -0.0572392 0)
(-0.0962818 -0.0512434 0)
(-0.0971521 -0.0452336 0)
(-0.097893 -0.039215 0)
(-0.0985123 -0.0331912 0)
(-0.0990174 -0.0271643 0)
(-0.0994143 -0.021135 0)
(-0.0997067 -0.0151031 0)
(-0.0998967 -0.00906711 0)
(-0.0999934 -0.00302501 0)
(0.0999884 -0.00495359 0)
(0.099791 -0.0148325 0)
(0.0994004 -0.024669 0)
(0.0987996 -0.0344496 0)
(0.097989 -0.04416 0)
(0.0969675 -0.0537837 0)
(0.0957307 -0.0633026 0)
(0.0942737 -0.0726963 0)
(0.0925917 -0.0819429 0)
(0.090681 -0.0910189 0)
(0.0885389 -0.0998995 0)
(0.0861645 -0.10856 0)
(0.0835597 -0.116977 0)
(0.0807323 -0.12513 0)
(0.0776999 -0.133004 0)
(0.0744932 -0.140593 0)
(0.0711609 -0.147905 0)
(0.0677724 -0.154981 0)
(0.0644186 -0.161897 0)
(0.0612038 -0.168782 0)
(0.0582284 -0.175812 0)
(0.0555612 -0.183189 0)
(0.0532102 -0.1911 0)
(0.0511023 -0.199656 0)
(0.0490853 -0.208866 0)
(0.046959 -0.21863 0)
(0.0445216 -0.228777 0)
(0.0416103 -0.239096 0)
(0.038122 -0.249378 0)
(0.0340137 -0.259428 0)
(0.0292864 -0.26908 0)
(0.0239681 -0.278196 0)
(0.0180983 -0.286673 0)
(0.0117223 -0.294433 0)
(0.00488948 -0.301414 0)
(-0.00233682 -0.307576 0)
(-0.00990635 -0.312899 0)
(-0.0177823 -0.317376 0)
(-0.0259192 -0.321011 0)
(-0.034276 -0.32382 0)
(-0.042816 -0.325828 0)
(-0.0515055 -0.327068 0)
(-0.0603135 -0.327579 0)
(-0.0692111 -0.327406 0)
(-0.0781721 -0.326595 0)
(-0.0871742 -0.325198 0)
(-0.0961979 -0.323269 0)
(-0.105227 -0.320861 0)
(-0.114246 -0.318028 0)
(-0.123241 -0.31482 0)
(-0.132193 -0.311285 0)
(-0.141061 -0.307463 0)
(-0.149752 -0.303381 0)
(-0.158138 -0.299053 0)
(-0.165915 -0.294471 0)
(-0.172124 -0.289584 0)
(-0.174845 -0.284262 0)
(-0.172582 -0.2783 0)
(-0.166122 -0.271606 0)
(-0.157533 -0.264217 0)
(-0.148238 -0.256176 0)
(-0.138839 -0.247533 0)
(-0.129569 -0.238351 0)
(-0.120556 -0.228716 0)
(-0.111901 -0.218736 0)
(-0.103563 -0.208534 0)
(-0.0953464 -0.198226 0)
(-0.0872996 -0.187959 0)
(-0.0798226 -0.177936 0)
(-0.0733039 -0.168381 0)
(-0.0680241 -0.159518 0)
(-0.064188 -0.151534 0)
(-0.0618758 -0.144523 0)
(-0.0610093 -0.138452 0)
(-0.0613823 -0.133163 0)
(-0.0627241 -0.128422 0)
(-0.0647543 -0.123991 0)
(-0.0672169 -0.119676 0)
(-0.0699032 -0.115345 0)
(-0.0726598 -0.110921 0)
(-0.0753839 -0.106366 0)
(-0.078011 -0.101669 0)
(-0.0805041 -0.096831 0)
(-0.0828439 -0.0918594 0)
(-0.0850222 -0.0867648 0)
(-0.0870369 -0.0815594 0)
(-0.088889 -0.076256 0)
(-0.090581 -0.0708674 0)
(-0.0921165 -0.0654058 0)
(-0.0934996 -0.0598825 0)
(-0.0947352 -0.0543074 0)
(-0.0958282 -0.0486894 0)
(-0.0967836 -0.0430365 0)
(-0.0976066 -0.0373549 0)
(-0.0983021 -0.03165 0)
(-0.0988748 -0.0259262 0)
(-0.0993283 -0.0201866 0)
(-0.0996641 -0.0144335 0)
(-0.0998825 -0.00866847 0)
(-0.0999934 -0.00289251 0)
(0.0999864 -0.00469274 0)
(0.0997708 -0.0140502 0)
(0.0993466 -0.0233639 0)
(0.0986974 -0.032619 0)
(0.0978256 -0.0417998 0)
(0.0967324 -0.0508894 0)
(0.0954158 -0.0598702 0)
(0.0938734 -0.0687236 0)
(0.0921033 -0.0774299 0)
(0.0901049 -0.0859689 0)
(0.0878791 -0.0943196 0)
(0.085429 -0.102461 0)
(0.0827614 -0.110373 0)
(0.0798888 -0.118037 0)
(0.0768312 -0.125438 0)
(0.073621 -0.132572 0)
(0.0703065 -0.139448 0)
(0.0669563 -0.146102 0)
(0.0636595 -0.152605 0)
(0.0605183 -0.159071 0)
(0.057631 -0.165662 0)
(0.0550655 -0.17256 0)
(0.0528296 -0.179936 0)
(0.0508509 -0.187898 0)
(0.0489787 -0.196458 0)
(0.0470137 -0.205536 0)
(0.0447535 -0.214983 0)
(0.0420327 -0.224611 0)
(0.0387443 -0.23423 0)
(0.0348381 -0.243664 0)
(0.0303054 -0.252759 0)
(0.0251631 -0.261387 0)
(0.0194466 -0.269448 0)
(0.0132014 -0.276861 0)
(0.00647549 -0.283568 0)
(-0.000678253 -0.289529 0)
(-0.00821162 -0.294725 0)
(-0.0160854 -0.299144 0)
(-0.0242606 -0.302789 0)
(-0.0327001 -0.305671 0)
(-0.0413699 -0.30781 0)
(-0.0502388 -0.309232 0)
(-0.0592775 -0.309966 0)
(-0.0684596 -0.310049 0)
(-0.0777613 -0.309518 0)
(-0.0871607 -0.308414 0)
(-0.0966376 -0.306779 0)
(-0.106173 -0.304652 0)
(-0.115747 -0.302075 0)
(-0.125341 -0.299083 0)
(-0.134922 -0.29571 0)
(-0.144434 -0.291981 0)
(-0.15376 -0.287915 0)
(-0.162738 -0.283517 0)
(-0.171002 -0.278778 0)
(-0.177468 -0.273657 0)
(-0.180063 -0.268049 0)
(-0.177359 -0.261803 0)
(-0.1704 -0.254885 0)
(-0.16136 -0.247369 0)
(-0.151628 -0.23932 0)
(-0.141787 -0.230797 0)
(-0.132077 -0.221866 0)
(-0.122641 -0.21261 0)
(-0.113589 -0.203126 0)
(-0.10486 -0.193524 0)
(-0.0962683 -0.183907 0)
(-0.0879088 -0.174407 0)
(-0.0801947 -0.165203 0)
(-0.0734998 -0.15649 0)
(-0.0680899 -0.148454 0)
(-0.0641521 -0.141241 0)
(-0.061748 -0.134913 0)
(-0.0607866 -0.129419 0)
(-0.0610573 -0.124606 0)
(-0.0622913 -0.120263 0)
(-0.0642139 -0.116181 0)
(-0.0665761 -0.11219 0)
(-0.0691755 -0.108176 0)
(-0.0718636 -0.104073 0)
(-0.0745401 -0.0998471 0)
(-0.0771418 -0.0954867 0)
(-0.0796311 -0.0909927 0)
(-0.0819868 -0.0863718 0)
(-0.0841977 -0.0816337 0)
(-0.0862582 -0.076789 0)
(-0.0881664 -0.0718484 0)
(-0.0899222 -0.0668223 0)
(-0.0915269 -0.0617207 0)
(-0.0929828 -0.0565527 0)
(-0.0942925 -0.051327 0)
(-0.0954591 -0.0460514 0)
(-0.0964859 -0.0407329 0)
(-0.097376 -0.0353779 0)
(-0.0981326 -0.0299918 0)
(-0.098759 -0.0245796 0)
(-0.0992573 -0.0191454 0)
(-0.0996277 -0.0136928 0)
(-0.0998695 -0.008225 0)
(-0.0999925 -0.00274471 0)
(0.0999862 -0.0044139 0)
(0.099762 -0.0132143 0)
(0.0993206 -0.0219703 0)
(0.0986455 -0.0306652 0)
(0.0977409 -0.0392821 0)
(0.0966101 -0.0478036 0)
(0.0952534 -0.0562116 0)
(0.0936705 -0.0644873 0)
(0.0918617 -0.0726116 0)
(0.0898287 -0.0805648 0)
(0.0875739 -0.0883273 0)
(0.0851022 -0.0958794 0)
(0.0824212 -0.103203 0)
(0.079544 -0.110281 0)
(0.0764911 -0.117104 0)
(0.073295 -0.123668 0)
(0.070004 -0.129987 0)
(0.0666862 -0.136096 0)
(0.0634297 -0.142067 0)
(0.0603353 -0.148013 0)
(0.0575001 -0.154089 0)
(0.0549904 -0.160471 0)
(0.0528143 -0.167322 0)
(0.0509013 -0.174742 0)
(0.049103 -0.182743 0)
(0.0472218 -0.191246 0)
(0.0450559 -0.200107 0)
(0.0424388 -0.209154 0)
(0.0392597 -0.218209 0)
(0.0354617 -0.227108 0)
(0.0310314 -0.23571 0)
(0.0259853 -0.243895 0)
(0.0203567 -0.251567 0)
(0.0141866 -0.258651 0)
(0.00751859 -0.265091 0)
(0.000399479 -0.270848 0)
(-0.00712483 -0.2759 0)
(-0.0150167 -0.280237 0)
(-0.0232416 -0.283857 0)
(-0.0317648 -0.286768 0)
(-0.0405543 -0.288984 0)
(-0.0495807 -0.290525 0)
(-0.058817 -0.291416 0)
(-0.0682381 -0.291684 0)
(-0.0778201 -0.291361 0)
(-0.0875399 -0.290478 0)
(-0.0973751 -0.289067 0)
(-0.107303 -0.28716 0)
(-0.1173 -0.284787 0)
(-0.127337 -0.281975 0)
(-0.137373 -0.27875 0)
(-0.147336 -0.27513 0)
(-0.15709 -0.271129 0)
(-0.166447 -0.266748 0)
(-0.174992 -0.261984 0)
(-0.181536 -0.256801 0)
(-0.183903 -0.251117 0)
(-0.180757 -0.24482 0)
(-0.173366 -0.237914 0)
(-0.163976 -0.230485 0)
(-0.153925 -0.222608 0)
(-0.143771 -0.214347 0)
(-0.133752 -0.205766 0)
(-0.124023 -0.196944 0)
(-0.114695 -0.187971 0)
(-0.105693 -0.178945 0)
(-0.0968434 -0.169953 0)
(-0.0882863 -0.161116 0)
(-0.0804421 -0.152592 0)
(-0.0736685 -0.14455 0)
(-0.0682174 -0.137155 0)
(-0.0642597 -0.130533 0)
(-0.0618397 -0.124734 0)
(-0.0608535 -0.119711 0)
(-0.0610846 -0.115321 0)
(-0.0622647 -0.111368 0)
(-0.0641232 -0.107659 0)
(-0.0664168 -0.104038 0)
(-0.0689491 -0.100396 0)
(-0.0715764 -0.0966713 0)
(-0.0742015 -0.09283 0)
(-0.076763 -0.0888598 0)
(-0.0792241 -0.0847593 0)
(-0.0815636 -0.080533 0)
(-0.0837697 -0.0761886 0)
(-0.0858364 -0.0717351 0)
(-0.0877604 -0.0671818 0)
(-0.0895406 -0.0625382 0)
(-0.0911768 -0.0578132 0)
(-0.0926694 -0.0530157 0)
(-0.0940196 -0.0481537 0)
(-0.0952286 -0.043235 0)
(-0.096298 -0.0382666 0)
(-0.0972294 -0.0332551 0)
(-0.0980246 -0.0282064 0)
(-0.0986852 -0.0231261 0)
(-0.0992123 -0.0180193 0)
(-0.0996049 -0.0128906 0)
(-0.0998616 -0.00774423 0)
(-0.0999921 -0.0025844 0)
(0.0999857 -0.00412587 0)
(0.0997542 -0.0123515 0)
(0.0992989 -0.0205338 0)
(0.0986036 -0.0286563 0)
(0.0976733 -0.0367019 0)
(0.0965122 -0.0446537 0)
(0.0951219 -0.0524944 0)
(0.0935033 -0.0602063 0)
(0.0916581 -0.0677719 0)
(0.0895893 -0.0751733 0)
(0.0873008 -0.0823929 0)
(0.0847988 -0.0894136 0)
(0.0820926 -0.0962191 0)
(0.0791965 -0.102796 0)
(0.0761328 -0.109135 0)
(0.0729348 -0.115234 0)
(0.069652 -0.121107 0)
(0.0663528 -0.126787 0)
(0.0631254 -0.13234 0)
(0.06007 -0.137868 0)
(0.0572822 -0.143513 0)
(0.0548273 -0.149435 0)
(0.0527114 -0.155783 0)
(0.0508632 -0.162652 0)
(0.049135 -0.170057 0)
(0.0473301 -0.177931 0)
(0.045246 -0.186149 0)
(0.042714 -0.194553 0)
(0.0396192 -0.202981 0)
(0.0359026 -0.211283 0)
(0.0315494 -0.219327 0)
(0.0265735 -0.226999 0)
(0.0210053 -0.23421 0)
(0.0148828 -0.240889 0)
(0.00824662 -0.246982 0)
(0.00114003 -0.252452 0)
(-0.00639227 -0.257277 0)
(-0.0143141 -0.261443 0)
(-0.0225938 -0.264948 0)
(-0.0311981 -0.267795 0)
(-0.0400965 -0.269995 0)
(-0.0492611 -0.271564 0)
(-0.0586657 -0.272521 0)
(-0.0682847 -0.272888 0)
(-0.0780932 -0.272689 0)
(-0.0880668 -0.27195 0)
(-0.0981802 -0.270696 0)
(-0.108407 -0.268951 0)
(-0.118719 -0.266741 0)
(-0.129081 -0.264086 0)
(-0.139442 -0.261006 0)
(-0.149719 -0.257518 0)
(-0.15976 -0.253631 0)
(-0.169359 -0.249349 0)
(-0.178055 -0.244668 0)
(-0.184579 -0.239562 0)
(-0.186685 -0.233963 0)
(-0.183146 -0.227793 0)
(-0.175411 -0.221082 0)
(-0.165761 -0.213914 0)
(-0.155489 -0.206363 0)
(-0.14512 -0.198493 0)
(-0.13489 -0.190367 0)
(-0.124966 -0.182062 0)
(-0.115458 -0.173661 0)
(-0.106271 -0.165252 0)
(-0.0972446 -0.156913 0)
(-0.0885596 -0.148752 0)
(-0.0806374 -0.140913 0)
(-0.0738193 -0.133545 0)
(-0.0683457 -0.126789 0)
(-0.0643752 -0.120753 0)
(-0.0619399 -0.115472 0)
(-0.060928 -0.110894 0)
(-0.0611208 -0.106882 0)
(-0.0622521 -0.103259 0)
(-0.0640555 -0.0998498 0)
(-0.0662928 -0.0965156 0)
(-0.0687724 -0.093161 0)
(-0.0713535 -0.089729 0)
(-0.0739414 -0.0861905 0)
(-0.0764755 -0.0825333 0)
(-0.078919 -0.0787555 0)
(-0.0812501 -0.0748605 0)
(-0.0834565 -0.0708544 0)
(-0.0855309 -0.0667447 0)
(-0.0874691 -0.0625391 0)
(-0.089269 -0.0582456 0)
(-0.0909291 -0.053872 0)
(-0.0924489 -0.0494259 0)
(-0.0938283 -0.0449145 0)
(-0.0950675 -0.0403449 0)
(-0.096167 -0.0357235 0)
(-0.0971274 -0.0310568 0)
(-0.0979493 -0.0263506 0)
(-0.0986338 -0.0216106 0)
(-0.0991809 -0.0168422 0)
(-0.099589 -0.0120504 0)
(-0.0998559 -0.00724015 0)
(-0.0999918 -0.00241625 0)
(0.0999855 -0.00383054 0)
(0.0997498 -0.011467 0)
(0.0992863 -0.0190621 0)
(0.0985788 -0.0265993 0)
(0.097633 -0.0340621 0)
(0.096454 -0.0414341 0)
(0.0950444 -0.0486985 0)
(0.093406 -0.0558387 0)
(0.0915418 -0.0628381 0)
(0.0894554 -0.06968 0)
(0.0871521 -0.0763481 0)
(0.0846388 -0.0828267 0)
(0.0819255 -0.0891013 0)
(0.079027 -0.0951598 0)
(0.0759659 -0.100994 0)
(0.0727756 -0.106604 0)
(0.069505 -0.112003 0)
(0.0662222 -0.117222 0)
(0.0630145 -0.122325 0)
(0.0599812 -0.127409 0)
(0.0572176 -0.132606 0)
(0.0547884 -0.138066 0)
(0.0527005 -0.143928 0)
(0.050883 -0.15028 0)
(0.049189 -0.157134 0)
(0.0474223 -0.164431 0)
(0.0453807 -0.172051 0)
(0.0428951 -0.179852 0)
(0.0398501 -0.187684 0)
(0.0361845 -0.195408 0)
(0.0318805 -0.202901 0)
(0.0269491 -0.21006 0)
(0.0214179 -0.216802 0)
(0.0153226 -0.22306 0)
(0.00870152 -0.228784 0)
(0.00159528 -0.233938 0)
(-0.00595202 -0.2385 0)
(-0.0139055 -0.242457 0)
(-0.0222362 -0.245803 0)
(-0.0309118 -0.248541 0)
(-0.0399028 -0.250678 0)
(-0.0491816 -0.252226 0)
(-0.0587216 -0.253201 0)
(-0.0684968 -0.253619 0)
(-0.0784812 -0.253501 0)
(-0.0886485 -0.252867 0)
(-0.0989712 -0.251737 0)
(-0.10942 -0.250132 0)
(-0.119961 -0.248071 0)
(-0.130554 -0.245573 0)
(-0.141144 -0.242654 0)
(-0.151634 -0.239328 0)
(-0.161863 -0.235604 0)
(-0.171609 -0.231486 0)
(-0.180374 -0.226973 0)
(-0.18682 -0.222043 0)
(-0.188669 -0.216642 0)
(-0.184799 -0.210721 0)
(-0.176796 -0.20432 0)
(-0.166954 -0.197518 0)
(-0.156518 -0.190384 0)
(-0.145999 -0.182977 0)
(-0.13563 -0.175363 0)
(-0.12558 -0.167611 0)
(-0.115952 -0.159798 0)
(-0.106637 -0.152002 0)
(-0.0974901 -0.144294 0)
(-0.0887243 -0.136772 0)
(-0.080762 -0.129563 0)
(-0.0739296 -0.122803 0)
(-0.0684592 -0.116615 0)
(-0.0645003 -0.111093 0)
(-0.062075 -0.106267 0)
(-0.0610642 -0.102085 0)
(-0.0612458 -0.0984205 0)
(-0.0623541 -0.0951109 0)
(-0.0641252 -0.0919967 0)
(-0.0663245 -0.0889507 0)
(-0.0687642 -0.0858861 0)
(-0.071307 -0.0827506 0)
(-0.0738603 -0.0795168 0)
(-0.0763654 -0.076173 0)
(-0.078786 -0.0727167 0)
(-0.0811008 -0.0691503 0)
(-0.0832971 -0.0654787 0)
(-0.0853675 -0.0617082 0)
(-0.0873072 -0.0578457 0)
(-0.0891133 -0.0538979 0)
(-0.0907836 -0.049872 0)
(-0.0923168 -0.0457747 0)
(-0.0937119 -0.0416126 0)
(-0.0949684 -0.0373924 0)
(-0.0960856 -0.0331202 0)
(-0.0970635 -0.028802 0)
(-0.097902 -0.0244438 0)
(-0.0986013 -0.0200511 0)
(-0.099161 -0.0156294 0)
(-0.0995789 -0.011184 0)
(-0.0998524 -0.00672005 0)
(-0.0999916 -0.00224272 0)
(0.0999853 -0.00353086 0)
(0.0997466 -0.0105697 0)
(0.0992772 -0.0175696 0)
(0.098561 -0.024515 0)
(0.0976042 -0.0313901 0)
(0.0964124 -0.0381794 0)
(0.0949885 -0.0448672 0)
(0.0933353 -0.0514382 0)
(0.091456 -0.0578769 0)
(0.0893552 -0.0641683 0)
(0.0870385 -0.0702976 0)
(0.0845136 -0.0762508 0)
(0.0817911 -0.0820149 0)
(0.0788864 -0.0875792 0)
(0.0758223 -0.0929372 0)
(0.0726329 -0.0980891 0)
(0.0693674 -0.103047 0)
(0.0660939 -0.107841 0)
(0.0628998 -0.112529 0)
(0.0598842 -0.1172 0)
(0.0571416 -0.121973 0)
(0.0547365 -0.126988 0)
(0.052675 -0.132371 0)
(0.0508859 -0.138204 0)
(0.049222 -0.144499 0)
(0.047487 -0.151203 0)
(0.0454785 -0.158209 0)
(0.0430269 -0.165387 0)
(0.0400159 -0.172601 0)
(0.0363832 -0.179723 0)
(0.0321093 -0.186641 0)
(0.0272034 -0.19326 0)
(0.0216918 -0.199502 0)
(0.0156085 -0.205307 0)
(0.00899014 -0.210627 0)
(0.00187546 -0.215428 0)
(-0.00569196 -0.219689 0)
(-0.0136783 -0.223395 0)
(-0.0220565 -0.226541 0)
(-0.0307947 -0.229127 0)
(-0.0398635 -0.231159 0)
(-0.0492352 -0.232645 0)
(-0.058883 -0.233597 0)
(-0.0687802 -0.23403 0)
(-0.0788998 -0.23396 0)
(-0.0892137 -0.233402 0)
(-0.0996923 -0.232375 0)
(-0.110303 -0.230896 0)
(-0.12101 -0.22898 0)
(-0.131769 -0.226644 0)
(-0.142517 -0.223902 0)
(-0.153151 -0.220765 0)
(-0.163503 -0.217244 0)
(-0.173337 -0.213342 0)
(-0.182123 -0.209061 0)
(-0.188464 -0.204384 0)
(-0.190077 -0.199266 0)
(-0.18594 -0.193679 0)
(-0.177735 -0.18767 0)
(-0.167753 -0.181307 0)
(-0.157205 -0.174654 0)
(-0.146584 -0.167767 0)
(-0.136122 -0.160707 0)
(-0.125989 -0.153538 0)
(-0.116284 -0.146331 0)
(-0.106882 -0.139158 0)
(-0.0976513 -0.13208 0)
(-0.0888358 -0.125188 0)
(-0.0808555 -0.118598 0)
(-0.0740235 -0.112429 0)
(-0.068565 -0.106792 0)
(-0.0646222 -0.101767 0)
(-0.0622096 -0.0973788 0)
(-0.0612026 -0.0935744 0)
(-0.0613772 -0.0902377 0)
(-0.0624686 -0.0872194 0)
(-0.0642152 -0.0843756 0)
(-0.0663856 -0.0815922 0)
(-0.068795 -0.0787911 0)
(-0.0713086 -0.0759255 0)
(-0.0738356 -0.0729704 0)
(-0.0763182 -0.0699152 0)
(-0.0787207 -0.0667571 0)
(-0.081022 -0.0634979 0)
(-0.0832093 -0.0601416 0)
(-0.0852747 -0.0566935 0)
(-0.0872133 -0.0531594 0)
(-0.0890215 -0.0495452 0)
(-0.0906967 -0.0458571 0)
(-0.0922372 -0.042101 0)
(-0.0936412 -0.038283 0)
(-0.0949077 -0.0344089 0)
(-0.0960355 -0.0304844 0)
(-0.097024 -0.0265153 0)
(-0.0978726 -0.0225071 0)
(-0.0985811 -0.0184651 0)
(-0.0991486 -0.0143948 0)
(-0.0995726 -0.0103014 0)
(-0.0998502 -0.00619004 0)
(-0.0999915 -0.00206586 0)
(0.0999852 -0.00322811 0)
(0.0997446 -0.00966327 0)
(0.0992716 -0.0160624 0)
(0.0985499 -0.0224108 0)
(0.0975861 -0.0286938 0)
(0.0963862 -0.0348968 0)
(0.0949537 -0.0410054 0)
(0.0932914 -0.0470053 0)
(0.0914033 -0.0528825 0)
(0.0892943 -0.0586231 0)
(0.0869705 -0.0642137 0)
(0.0844401 -0.0696416 0)
(0.0817138 -0.0748952 0)
(0.0788074 -0.0799649 0)
(0.075744 -0.0848451 0)
(0.0725575 -0.0895364 0)
(0.0692971 -0.0940502 0)
(0.0660309 -0.0984149 0)
(0.0628457 -0.102683 0)
(0.0598403 -0.106936 0)
(0.0571091 -0.111286 0)
(0.0547161 -0.115858 0)
(0.0526676 -0.120768 0)
(0.0508928 -0.126092 0)
(0.0492449 -0.131841 0)
(0.0475276 -0.137965 0)
(0.0455385 -0.144369 0)
(0.0431072 -0.150933 0)
(0.0401169 -0.157533 0)
(0.036504 -0.164055 0)
(0.0322479 -0.170394 0)
(0.0273564 -0.176466 0)
(0.0218544 -0.182198 0)
(0.0157746 -0.187534 0)
(0.00915271 -0.192432 0)
(0.00202588 -0.19686 0)
(-0.00556263 -0.200795 0)
(-0.0135797 -0.204227 0)
(-0.0219992 -0.207147 0)
(-0.0307895 -0.209555 0)
(-0.0399212 -0.211454 0)
(-0.0493666 -0.212852 0)
(-0.0590984 -0.213757 0)
(-0.0690892 -0.214182 0)
(-0.0793111 -0.21414 0)
(-0.0897345 -0.213645 0)
(-0.100328 -0.21271 0)
(-0.111057 -0.211352 0)
(-0.121883 -0.209583 0)
(-0.132758 -0.207417 0)
(-0.143616 -0.204868 0)
(-0.154348 -0.201946 0)
(-0.164778 -0.198659 0)
(-0.174663 -0.195014 0)
(-0.183442 -0.191013 0)
(-0.189671 -0.186646 0)
(-0.191076 -0.181873 0)
(-0.186728 -0.17668 0)
(-0.178373 -0.171115 0)
(-0.168289 -0.165238 0)
(-0.15766 -0.159106 0)
(-0.146968 -0.152771 0)
(-0.136442 -0.146289 0)
(-0.126255 -0.139718 0)
(-0.116497 -0.133124 0)
(-0.107035 -0.126571 0)
(-0.0977465 -0.120116 0)
(-0.088901 -0.11384 0)
(-0.0809162 -0.107848 0)
(-0.0740938 -0.102245 0)
(-0.0686538 -0.0971316 0)
(-0.064733 -0.0925781 0)
(-0.0623395 -0.0886027 0)
(-0.061344 -0.0851567 0)
(-0.0615208 -0.0821328 0)
(-0.062605 -0.0793956 0)
(-0.0643368 -0.0768153 0)
(-0.0664873 -0.074289 0)
(-0.068874 -0.0717465 0)
(-0.0713644 -0.0691456 0)
(-0.0738693 -0.0664638 0)
(-0.076332 -0.063691 0)
(-0.0787175 -0.0608246 0)
(-0.0810049 -0.0578658 0)
(-0.0831814 -0.054818 0)
(-0.0852392 -0.0516857 0)
(-0.0871729 -0.0484738 0)
(-0.0889789 -0.0451876 0)
(-0.0906543 -0.0418325 0)
(-0.0921966 -0.0384137 0)
(-0.0936041 -0.0349367 0)
(-0.0948751 -0.0314069 0)
(-0.0960082 -0.0278294 0)
(-0.0970022 -0.0242096 0)
(-0.0978562 -0.0205525 0)
(-0.0985697 -0.0168634 0)
(-0.0991416 -0.0131472 0)
(-0.099569 -0.00940913 0)
(-0.0998489 -0.00565404 0)
(-0.0999914 -0.00188698 0)
(0.0999851 -0.00292342 0)
(0.0997432 -0.00875113 0)
(0.0992677 -0.0145459 0)
(0.0985424 -0.0202943 0)
(0.0975739 -0.0259827 0)
(0.0963685 -0.0315978 0)
(0.0949299 -0.0371265 0)
(0.0932613 -0.0425558 0)
(0.0913669 -0.0478729 0)
(0.0892519 -0.0530653 0)
(0.0869228 -0.058121 0)
(0.0843877 -0.0630286 0)
(0.081658 -0.0677779 0)
(0.0787494 -0.0723604 0)
(0.0756852 -0.0767711 0)
(0.0724996 -0.0810109 0)
(0.0692419 -0.0850903 0)
(0.06598 -0.0890353 0)
(0.0628007 -0.0928932 0)
(0.0598029 -0.0967384 0)
(0.0570804 -0.100671 0)
(0.0546971 -0.104805 0)
(0.0526592 -0.109245 0)
(0.0508955 -0.114059 0)
(0.0492592 -0.119259 0)
(0.0475542 -0.1248 0)
(0.0455777 -0.130597 0)
(0.0431593 -0.136541 0)
(0.0401811 -0.142521 0)
(0.0365792 -0.148433 0)
(0.032332 -0.154184 0)
(0.0274466 -0.159696 0)
(0.0219468 -0.164904 0)
(0.0158647 -0.169758 0)
(0.0092348 -0.174217 0)
(0.00209378 -0.178252 0)
(-0.00551545 -0.181844 0)
(-0.0135602 -0.18498 0)
(-0.022015 -0.187654 0)
(-0.0308482 -0.189863 0)
(-0.0400305 -0.19161 0)
(-0.049534 -0.1929 0)
(-0.0593309 -0.193742 0)
(-0.0693933 -0.194144 0)
(-0.0796923 -0.194118 0)
(-0.0901973 -0.193675 0)
(-0.100875 -0.192828 0)
(-0.111691 -0.191589 0)
(-0.122602 -0.189971 0)
(-0.133559 -0.187985 0)
(-0.144493 -0.185643 0)
(-0.155291 -0.182955 0)
(-0.165771 -0.179929 0)
(-0.175682 -0.17657 0)
(-0.184446 -0.172883 0)
(-0.190556 -0.168877 0)
(-0.191788 -0.164491 0)
(-0.187274 -0.159732 0)
(-0.178808 -0.154646 0)
(-0.16865 -0.149285 0)
(-0.157963 -0.143699 0)
(-0.147221 -0.137937 0)
(-0.136652 -0.132048 0)
(-0.126428 -0.126088 0)
(-0.116637 -0.120113 0)
(-0.107132 -0.114183 0)
(-0.097803 -0.108349 0)
(-0.08894 -0.102682 0)
(-0.0809582 -0.0972782 0)
(-0.0741495 -0.0922311 0)
(-0.0687298 -0.0876289 0)
(-0.0648314 -0.0835338 0)
(-0.0624576 -0.0799599 0)
(-0.0614751 -0.0768614 0)
(-0.0616566 -0.0741407 0)
(-0.0627377 -0.0716757 0)
(-0.0644599 -0.0693502 0)
(-0.066596 -0.0670724 0)
(-0.0689657 -0.0647798 0)
(-0.0714383 -0.0624347 0)
(-0.0739258 -0.0600171 0)
(-0.0763725 -0.0575179 0)
(-0.0787438 -0.0549345 0)
(-0.0810191 -0.0522679 0)
(-0.0831857 -0.0495208 0)
(-0.0852357 -0.0466971 0)
(-0.0871637 -0.0438011 0)
(-0.0889658 -0.0408372 0)
(-0.0906389 -0.0378102 0)
(-0.0921804 -0.0347249 0)
(-0.0935883 -0.0315859 0)
(-0.0948605 -0.028398 0)
(-0.0959955 -0.0251661 0)
(-0.0969918 -0.0218949 0)
(-0.0978482 -0.0185891 0)
(-0.0985641 -0.0152535 0)
(-0.0991381 -0.0118928 0)
(-0.0995672 -0.0085117 0)
(-0.0998483 -0.00511487 0)
(-0.0999914 -0.00170704 0)
(0.099985 -0.00261743 0)
(0.0997423 -0.00783511 0)
(0.0992652 -0.0130232 0)
(0.0985375 -0.0181693 0)
(0.097566 -0.0232613 0)
(0.0963571 -0.0282872 0)
(0.0949146 -0.0332351 0)
(0.093242 -0.0380932 0)
(0.0913437 -0.0428503 0)
(0.0892249 -0.047495 0)
(0.0868925 -0.0520167 0)
(0.0843548 -0.0564052 0)
(0.081623 -0.0606514 0)
(0.0787134 -0.064748 0)
(0.0756491 -0.0686906 0)
(0.0724644 -0.07248 0)
(0.0692086 -0.076126 0)
(0.0659496 -0.0796519 0)
(0.0627741 -0.0831002 0)
(0.0597806 -0.0865377 0)
(0.0570631 -0.0900539 0)
(0.0546853 -0.0937512 0)
(0.0526532 -0.0977234 0)
(0.0508957 -0.102031 0)
(0.0492659 -0.106685 0)
(0.0475677 -0.111646 0)
(0.0455981 -0.116837 0)
(0.0431865 -0.122161 0)
(0.0402146 -0.12752 0)
(0.0366179 -0.132819 0)
(0.0323742 -0.137977 0)
(0.0274899 -0.142923 0)
(0.0219883 -0.147599 0)
(0.0159008 -0.15196 0)
(0.00926161 -0.155969 0)
(0.00210668 -0.159601 0)
(-0.00552132 -0.162836 0)
(-0.01359 -0.165663 0)
(-0.0220741 -0.168076 0)
(-0.0309421 -0.170073 0)
(-0.0401646 -0.171655 0)
(-0.0497134 -0.172825 0)
(-0.0595604 -0.173592 0)
(-0.0696773 -0.173962 0)
(-0.0800341 -0.173944 0)
(-0.0905996 -0.173549 0)
(-0.10134 -0.172788 0)
(-0.112217 -0.17167 0)
(-0.12319 -0.170208 0)
(-0.134206 -0.16841 0)
(-0.145193 -0.166288 0)
(-0.156034 -0.16385 0)
(-0.166545 -0.161104 0)
(-0.176467 -0.158056 0)
(-0.185213 -0.154709 0)
(-0.19121 -0.151097 0)
(-0.192302 -0.147127 0)
(-0.187656 -0.142829 0)
(-0.179106 -0.138244 0)
(-0.168892 -0.133419 0)
(-0.158164 -0.128396 0)
(-0.147386 -0.12322 0)
(-0.136787 -0.117936 0)
(-0.126539 -0.112592 0)
(-0.116726 -0.10724 0)
(-0.10719 -0.101933 0)
(-0.0978328 -0.0967156 0)
(-0.0889599 -0.0916532 0)
(-0.080985 -0.086829 0)
(-0.0741917 -0.0823272 0)
(-0.0687924 -0.0782252 0)
(-0.0649162 -0.0745772 0)
(-0.0625622 -0.0713945 0)
(-0.0615939 -0.0686347 0)
(-0.0617827 -0.0662102 0)
(-0.0628642 -0.0640123 0)
(-0.0645808 -0.0619374 0)
(-0.0667071 -0.0599046 0)
(-0.0690642 -0.0578584 0)
(-0.0715229 -0.0557657 0)
(-0.0739965 -0.0536085 0)
(-0.0764298 -0.0513789 0)
(-0.0787889 -0.0490743 0)
(-0.0810533 -0.0466955 0)
(-0.0832106 -0.0442448 0)
(-0.0852528 -0.0417255 0)
(-0.0871744 -0.0391413 0)
(-0.0889716 -0.0364962 0)
(-0.090641 -0.0337941 0)
(-0.09218 -0.0310393 0)